PSF EXT CMAP XPLOR

         2 !NTITLE
* GENERATED BY CHARMM-GUI FF-Converter
* DATE:   01/10/25   05:30:27

     29469 !NATOM
         1 PROA     1        NLYS     N        N3       0.966000E-01   14.0100           0
         2 PROA     1        NLYS     H1       H        0.216500       1.00800           0
         3 PROA     1        NLYS     H2       H        0.216500       1.00800           0
         4 PROA     1        NLYS     H3       H        0.216500       1.00800           0
         5 PROA     1        NLYS     CA       CX      -0.150000E-02   12.0100           0
         6 PROA     1        NLYS     HA       HP       0.118000       1.00800           0
         7 PROA     1        NLYS     CB       C8       0.212000E-01   12.0100           0
         8 PROA     1        NLYS     HB2      HC       0.283000E-01   1.00800           0
         9 PROA     1        NLYS     HB3      HC       0.283000E-01   1.00800           0
        10 PROA     1        NLYS     CG       C8      -0.480000E-02   12.0100           0
        11 PROA     1        NLYS     HG2      HC       0.121000E-01   1.00800           0
        12 PROA     1        NLYS     HG3      HC       0.121000E-01   1.00800           0
        13 PROA     1        NLYS     CD       C8      -0.608000E-01   12.0100           0
        14 PROA     1        NLYS     HD2      HC       0.633000E-01   1.00800           0
        15 PROA     1        NLYS     HD3      HC       0.633000E-01   1.00800           0
        16 PROA     1        NLYS     CE       C8      -0.181000E-01   12.0100           0
        17 PROA     1        NLYS     HE2      HP       0.117100       1.00800           0
        18 PROA     1        NLYS     HE3      HP       0.117100       1.00800           0
        19 PROA     1        NLYS     NZ       N3      -0.376400       14.0100           0
        20 PROA     1        NLYS     HZ1      H        0.338200       1.00800           0
        21 PROA     1        NLYS     HZ2      H        0.338200       1.00800           0
        22 PROA     1        NLYS     HZ3      H        0.338200       1.00800           0
        23 PROA     1        NLYS     C        C        0.721400       12.0100           0
        24 PROA     1        NLYS     O        O       -0.601300       16.0000           0
        25 PROA     2        GLY      N        N       -0.415700       14.0100           0
        26 PROA     2        GLY      H        H        0.271900       1.00800           0
        27 PROA     2        GLY      CA       XC      -0.252000E-01   12.0100           0
        28 PROA     2        GLY      HA2      H1       0.698000E-01   1.00800           0
        29 PROA     2        GLY      HA3      H1       0.698000E-01   1.00800           0
        30 PROA     2        GLY      C        C        0.597300       12.0100           0
        31 PROA     2        GLY      O        O       -0.567900       16.0000           0
        32 PROA     3        PRO      N        N       -0.254800       14.0100           0
        33 PROA     3        PRO      CD       CT       0.192000E-01   12.0100           0
        34 PROA     3        PRO      HD2      H1       0.391000E-01   1.00800           0
        35 PROA     3        PRO      HD3      H1       0.391000E-01   1.00800           0
        36 PROA     3        PRO      CG       CT       0.189000E-01   12.0100           0
        37 PROA     3        PRO      HG2      HC       0.213000E-01   1.00800           0
        38 PROA     3        PRO      HG3      HC       0.213000E-01   1.00800           0
        39 PROA     3        PRO      CB       CT      -0.700000E-02   12.0100           0
        40 PROA     3        PRO      HB2      HC       0.253000E-01   1.00800           0
        41 PROA     3        PRO      HB3      HC       0.253000E-01   1.00800           0
        42 PROA     3        PRO      CA       XC      -0.266000E-01   12.0100           0
        43 PROA     3        PRO      HA       H1       0.641000E-01   1.00800           0
        44 PROA     3        PRO      C        C        0.589600       12.0100           0
        45 PROA     3        PRO      O        O       -0.574800       16.0000           0
        46 PROA     4        PRO      N        N       -0.254800       14.0100           0
        47 PROA     4        PRO      CD       CT       0.192000E-01   12.0100           0
        48 PROA     4        PRO      HD2      H1       0.391000E-01   1.00800           0
        49 PROA     4        PRO      HD3      H1       0.391000E-01   1.00800           0
        50 PROA     4        PRO      CG       CT       0.189000E-01   12.0100           0
        51 PROA     4        PRO      HG2      HC       0.213000E-01   1.00800           0
        52 PROA     4        PRO      HG3      HC       0.213000E-01   1.00800           0
        53 PROA     4        PRO      CB       CT      -0.700000E-02   12.0100           0
        54 PROA     4        PRO      HB2      HC       0.253000E-01   1.00800           0
        55 PROA     4        PRO      HB3      HC       0.253000E-01   1.00800           0
        56 PROA     4        PRO      CA       XC      -0.266000E-01   12.0100           0
        57 PROA     4        PRO      HA       H1       0.641000E-01   1.00800           0
        58 PROA     4        PRO      C        C        0.589600       12.0100           0
        59 PROA     4        PRO      O        O       -0.574800       16.0000           0
        60 PROA     5        ARG      N        N       -0.347900       14.0100           0
        61 PROA     5        ARG      H        H        0.274700       1.00800           0
        62 PROA     5        ARG      CA       XC      -0.263700       12.0100           0
        63 PROA     5        ARG      HA       H1       0.156000       1.00800           0
        64 PROA     5        ARG      CB       C8      -0.700000E-03   12.0100           0
        65 PROA     5        ARG      HB2      HC       0.327000E-01   1.00800           0
        66 PROA     5        ARG      HB3      HC       0.327000E-01   1.00800           0
        67 PROA     5        ARG      CG       C8       0.390000E-01   12.0100           0
        68 PROA     5        ARG      HG2      HC       0.285000E-01   1.00800           0
        69 PROA     5        ARG      HG3      HC       0.285000E-01   1.00800           0
        70 PROA     5        ARG      CD       C8       0.486000E-01   12.0100           0
        71 PROA     5        ARG      HD2      H1       0.687000E-01   1.00800           0
        72 PROA     5        ARG      HD3      H1       0.687000E-01   1.00800           0
        73 PROA     5        ARG      NE       N2      -0.529500       14.0100           0
        74 PROA     5        ARG      HE       H        0.345600       1.00800           0
        75 PROA     5        ARG      CZ       CA       0.807600       12.0100           0
        76 PROA     5        ARG      NH1      N2      -0.862700       14.0100           0
        77 PROA     5        ARG      HH11     H        0.447800       1.00800           0
        78 PROA     5        ARG      HH12     H        0.447800       1.00800           0
        79 PROA     5        ARG      NH2      N2      -0.862700       14.0100           0
        80 PROA     5        ARG      HH21     H        0.447800       1.00800           0
        81 PROA     5        ARG      HH22     H        0.447800       1.00800           0
        82 PROA     5        ARG      C        C        0.734100       12.0100           0
        83 PROA     5        ARG      O        O       -0.589400       16.0000           0
        84 PROA     6        CARG     N        N       -0.348100       14.0100           0
        85 PROA     6        CARG     H        H        0.276400       1.00800           0
        86 PROA     6        CARG     CA       CX      -0.306800       12.0100           0
        87 PROA     6        CARG     HA       H1       0.144700       1.00800           0
        88 PROA     6        CARG     CB       C8      -0.374000E-01   12.0100           0
        89 PROA     6        CARG     HB2      HC       0.371000E-01   1.00800           0
        90 PROA     6        CARG     HB3      HC       0.371000E-01   1.00800           0
        91 PROA     6        CARG     CG       C8       0.744000E-01   12.0100           0
        92 PROA     6        CARG     HG2      HC       0.185000E-01   1.00800           0
        93 PROA     6        CARG     HG3      HC       0.185000E-01   1.00800           0
        94 PROA     6        CARG     CD       C8       0.111400       12.0100           0
        95 PROA     6        CARG     HD2      H1       0.468000E-01   1.00800           0
        96 PROA     6        CARG     HD3      H1       0.468000E-01   1.00800           0
        97 PROA     6        CARG     NE       N2      -0.556400       14.0100           0
        98 PROA     6        CARG     HE       H        0.347900       1.00800           0
        99 PROA     6        CARG     CZ       CA       0.836800       12.0100           0
       100 PROA     6        CARG     NH1      N2      -0.873700       14.0100           0
       101 PROA     6        CARG     HH11     H        0.449300       1.00800           0
       102 PROA     6        CARG     HH12     H        0.449300       1.00800           0
       103 PROA     6        CARG     NH2      N2      -0.873700       14.0100           0
       104 PROA     6        CARG     HH21     H        0.449300       1.00800           0
       105 PROA     6        CARG     HH22     H        0.449300       1.00800           0
       106 PROA     6        CARG     C        C        0.855700       12.0100           0
       107 PROA     6        CARG     O        O2      -0.826600       16.0000           0
       108 PROA     6        CARG     OXT      O2      -0.826600       16.0000           0
       109 MEMB     1        PA       C116     cD      -0.125447       12.0100           0
       110 MEMB     1        PA       H16R     hL       0.290470E-01   1.00800           0
       111 MEMB     1        PA       H16S     hL       0.290470E-01   1.00800           0
       112 MEMB     1        PA       H16T     hL       0.290470E-01   1.00800           0
       113 MEMB     1        PA       C115     cD       0.139750E-01   12.0100           0
       114 MEMB     1        PA       H15R     hL       0.929200E-02   1.00800           0
       115 MEMB     1        PA       H15S     hL       0.929200E-02   1.00800           0
       116 MEMB     1        PA       C114     cD      -0.200860E-01   12.0100           0
       117 MEMB     1        PA       H14R     hL       0.159290E-01   1.00800           0
       118 MEMB     1        PA       H14S     hL       0.159290E-01   1.00800           0
       119 MEMB     1        PA       C113     cD      -0.330960E-01   12.0100           0
       120 MEMB     1        PA       H13R     hL       0.146210E-01   1.00800           0
       121 MEMB     1        PA       H13S     hL       0.146210E-01   1.00800           0
       122 MEMB     1        PA       C112     cD      -0.276330E-01   12.0100           0
       123 MEMB     1        PA       H12R     hL       0.113680E-01   1.00800           0
       124 MEMB     1        PA       H12S     hL       0.113680E-01   1.00800           0
       125 MEMB     1        PA       C111     cD      -0.252060E-01   12.0100           0
       126 MEMB     1        PA       H11R     hL       0.143340E-01   1.00800           0
       127 MEMB     1        PA       H11S     hL       0.143340E-01   1.00800           0
       128 MEMB     1        PA       C110     cD      -0.288310E-01   12.0100           0
       129 MEMB     1        PA       H10R     hL       0.146910E-01   1.00800           0
       130 MEMB     1        PA       H10S     hL       0.146910E-01   1.00800           0
       131 MEMB     1        PA       C19      cD      -0.304720E-01   12.0100           0
       132 MEMB     1        PA       H9R      hL       0.138970E-01   1.00800           0
       133 MEMB     1        PA       H9S      hL       0.138970E-01   1.00800           0
       134 MEMB     1        PA       C18      cD      -0.157930E-01   12.0100           0
       135 MEMB     1        PA       H8R      hL       0.906700E-02   1.00800           0
       136 MEMB     1        PA       H8S      hL       0.906700E-02   1.00800           0
       137 MEMB     1        PA       C17      cD      -0.196300E-01   12.0100           0
       138 MEMB     1        PA       H7R      hL       0.110410E-01   1.00800           0
       139 MEMB     1        PA       H7S      hL       0.110410E-01   1.00800           0
       140 MEMB     1        PA       C16      cD      -0.244270E-01   12.0100           0
       141 MEMB     1        PA       H6R      hL       0.133340E-01   1.00800           0
       142 MEMB     1        PA       H6S      hL       0.133340E-01   1.00800           0
       143 MEMB     1        PA       C15      cD      -0.293870E-01   12.0100           0
       144 MEMB     1        PA       H5R      hL       0.167630E-01   1.00800           0
       145 MEMB     1        PA       H5S      hL       0.167630E-01   1.00800           0
       146 MEMB     1        PA       C14      cD      -0.300990E-01   12.0100           0
       147 MEMB     1        PA       H4R      hL       0.208770E-01   1.00800           0
       148 MEMB     1        PA       H4S      hL       0.208770E-01   1.00800           0
       149 MEMB     1        PA       C13      cD      -0.488200E-02   12.0100           0
       150 MEMB     1        PA       H3R      hL       0.190070E-01   1.00800           0
       151 MEMB     1        PA       H3S      hL       0.190070E-01   1.00800           0
       152 MEMB     1        PA       C12      cD      -0.149259       12.0100           0
       153 MEMB     1        PA       H2R      hL       0.473450E-01   1.00800           0
       154 MEMB     1        PA       H2S      hL       0.473450E-01   1.00800           0
       155 MEMB     1        PC       C11      cC       0.910403       12.0100           0
       156 MEMB     1        PC       O12      oC      -0.671566       16.0000           0
       157 MEMB     1        PC       O11      oS      -0.575489       16.0000           0
       158 MEMB     1        PC       C1       cA       0.196939       12.0100           0
       159 MEMB     1        PC       HR       hE       0.704690E-01   1.00800           0
       160 MEMB     1        PC       HS       hE       0.704690E-01   1.00800           0
       161 MEMB     1        PC       C2       cA       0.281242       12.0100           0
       162 MEMB     1        PC       HX       hE       0.632530E-01   1.00800           0
       163 MEMB     1        PC       C3       cA       0.174590E-01   12.0100           0
       164 MEMB     1        PC       HA       hE       0.955910E-01   1.00800           0
       165 MEMB     1        PC       HB       hE       0.955910E-01   1.00800           0
       166 MEMB     1        PC       O31      oT      -0.509480       16.0000           0
       167 MEMB     1        PC       P31      pA       1.339721       30.9700           0
       168 MEMB     1        PC       O32      oT      -0.508176       16.0000           0
       169 MEMB     1        PC       C31      cA       0.166801       12.0100           0
       170 MEMB     1        PC       H1A      hE       0.785340E-01   1.00800           0
       171 MEMB     1        PC       H1B      hE       0.785340E-01   1.00800           0
       172 MEMB     1        PC       C32      cA      -0.170824       12.0100           0
       173 MEMB     1        PC       H2A      hX       0.136415       1.00800           0
       174 MEMB     1        PC       H2B      hX       0.136415       1.00800           0
       175 MEMB     1        PC       N31      nA       0.245262       14.0100           0
       176 MEMB     1        PC       C33      cA      -0.338973       12.0100           0
       177 MEMB     1        PC       H3A      hX       0.172230       1.00800           0
       178 MEMB     1        PC       H3B      hX       0.172230       1.00800           0
       179 MEMB     1        PC       H3C      hX       0.172230       1.00800           0
       180 MEMB     1        PC       C34      cA      -0.338973       12.0100           0
       181 MEMB     1        PC       H4A      hX       0.172230       1.00800           0
       182 MEMB     1        PC       H4B      hX       0.172230       1.00800           0
       183 MEMB     1        PC       H4C      hX       0.172230       1.00800           0
       184 MEMB     1        PC       C35      cA      -0.338973       12.0100           0
       185 MEMB     1        PC       H5A      hX       0.172230       1.00800           0
       186 MEMB     1        PC       H5B      hX       0.172230       1.00800           0
       187 MEMB     1        PC       H5C      hX       0.172230       1.00800           0
       188 MEMB     1        PC       O33      oP      -0.875812       16.0000           0
       189 MEMB     1        PC       O34      oP      -0.875812       16.0000           0
       190 MEMB     1        PC       O21      oS      -0.552948       16.0000           0
       191 MEMB     1        PC       C21      cC       0.897613       12.0100           0
       192 MEMB     1        PC       O22      oC      -0.673755       16.0000           0
       193 MEMB     1        OL       C12      cD      -0.143418       12.0100           0
       194 MEMB     1        OL       H2R      hL       0.428610E-01   1.00800           0
       195 MEMB     1        OL       H2S      hL       0.428610E-01   1.00800           0
       196 MEMB     1        OL       C13      cD       0.161900E-02   12.0100           0
       197 MEMB     1        OL       H3R      hL       0.195290E-01   1.00800           0
       198 MEMB     1        OL       H3S      hL       0.195290E-01   1.00800           0
       199 MEMB     1        OL       C14      cD      -0.229600E-01   12.0100           0
       200 MEMB     1        OL       H4R      hL       0.181340E-01   1.00800           0
       201 MEMB     1        OL       H4S      hL       0.181340E-01   1.00800           0
       202 MEMB     1        OL       C15      cD      -0.166920E-01   12.0100           0
       203 MEMB     1        OL       H5R      hL       0.869000E-02   1.00800           0
       204 MEMB     1        OL       H5S      hL       0.869000E-02   1.00800           0
       205 MEMB     1        OL       C16      cD      -0.237890E-01   12.0100           0
       206 MEMB     1        OL       H6R      hL       0.926600E-02   1.00800           0
       207 MEMB     1        OL       H6S      hL       0.926600E-02   1.00800           0
       208 MEMB     1        OL       C17      cD      -0.174950E-01   12.0100           0
       209 MEMB     1        OL       H7R      hL       0.195980E-01   1.00800           0
       210 MEMB     1        OL       H7S      hL       0.195980E-01   1.00800           0
       211 MEMB     1        OL       C18      cD       0.317750E-01   12.0100           0
       212 MEMB     1        OL       H8R      hL       0.326850E-01   1.00800           0
       213 MEMB     1        OL       H8S      hL       0.326850E-01   1.00800           0
       214 MEMB     1        OL       C19      cB      -0.244228       12.0100           0
       215 MEMB     1        OL       H9R      hB       0.131512       1.00800           0
       216 MEMB     1        OL       C110     cB      -0.239284       12.0100           0
       217 MEMB     1        OL       H10R     hB       0.126878       1.00800           0
       218 MEMB     1        OL       C111     cD       0.290590E-01   12.0100           0
       219 MEMB     1        OL       H11R     hL       0.335310E-01   1.00800           0
       220 MEMB     1        OL       H11S     hL       0.335310E-01   1.00800           0
       221 MEMB     1        OL       C112     cD      -0.263530E-01   12.0100           0
       222 MEMB     1        OL       H12R     hL       0.197170E-01   1.00800           0
       223 MEMB     1        OL       H12S     hL       0.197170E-01   1.00800           0
       224 MEMB     1        OL       C113     cD      -0.182570E-01   12.0100           0
       225 MEMB     1        OL       H13R     hL       0.138000E-01   1.00800           0
       226 MEMB     1        OL       H13S     hL       0.138000E-01   1.00800           0
       227 MEMB     1        OL       C114     cD      -0.248490E-01   12.0100           0
       228 MEMB     1        OL       H14R     hL       0.857200E-02   1.00800           0
       229 MEMB     1        OL       H14S     hL       0.857200E-02   1.00800           0
       230 MEMB     1        OL       C115     cD      -0.232470E-01   12.0100           0
       231 MEMB     1        OL       H15R     hL       0.104030E-01   1.00800           0
       232 MEMB     1        OL       H15S     hL       0.104030E-01   1.00800           0
       233 MEMB     1        OL       C116     cD      -0.124880E-01   12.0100           0
       234 MEMB     1        OL       H16R     hL       0.136590E-01   1.00800           0
       235 MEMB     1        OL       H16S     hL       0.136590E-01   1.00800           0
       236 MEMB     1        OL       C117     cD       0.868400E-02   12.0100           0
       237 MEMB     1        OL       H17R     hL       0.100260E-01   1.00800           0
       238 MEMB     1        OL       H17S     hL       0.100260E-01   1.00800           0
       239 MEMB     1        OL       C118     cD      -0.117290       12.0100           0
       240 MEMB     1        OL       H18R     hL       0.266270E-01   1.00800           0
       241 MEMB     1        OL       H18S     hL       0.266270E-01   1.00800           0
       242 MEMB     1        OL       H18T     hL       0.266270E-01   1.00800           0
       243 MEMB     2        PA       C116     cD      -0.125447       12.0100           0
       244 MEMB     2        PA       H16R     hL       0.290470E-01   1.00800           0
       245 MEMB     2        PA       H16S     hL       0.290470E-01   1.00800           0
       246 MEMB     2        PA       H16T     hL       0.290470E-01   1.00800           0
       247 MEMB     2        PA       C115     cD       0.139750E-01   12.0100           0
       248 MEMB     2        PA       H15R     hL       0.929200E-02   1.00800           0
       249 MEMB     2        PA       H15S     hL       0.929200E-02   1.00800           0
       250 MEMB     2        PA       C114     cD      -0.200860E-01   12.0100           0
       251 MEMB     2        PA       H14R     hL       0.159290E-01   1.00800           0
       252 MEMB     2        PA       H14S     hL       0.159290E-01   1.00800           0
       253 MEMB     2        PA       C113     cD      -0.330960E-01   12.0100           0
       254 MEMB     2        PA       H13R     hL       0.146210E-01   1.00800           0
       255 MEMB     2        PA       H13S     hL       0.146210E-01   1.00800           0
       256 MEMB     2        PA       C112     cD      -0.276330E-01   12.0100           0
       257 MEMB     2        PA       H12R     hL       0.113680E-01   1.00800           0
       258 MEMB     2        PA       H12S     hL       0.113680E-01   1.00800           0
       259 MEMB     2        PA       C111     cD      -0.252060E-01   12.0100           0
       260 MEMB     2        PA       H11R     hL       0.143340E-01   1.00800           0
       261 MEMB     2        PA       H11S     hL       0.143340E-01   1.00800           0
       262 MEMB     2        PA       C110     cD      -0.288310E-01   12.0100           0
       263 MEMB     2        PA       H10R     hL       0.146910E-01   1.00800           0
       264 MEMB     2        PA       H10S     hL       0.146910E-01   1.00800           0
       265 MEMB     2        PA       C19      cD      -0.304720E-01   12.0100           0
       266 MEMB     2        PA       H9R      hL       0.138970E-01   1.00800           0
       267 MEMB     2        PA       H9S      hL       0.138970E-01   1.00800           0
       268 MEMB     2        PA       C18      cD      -0.157930E-01   12.0100           0
       269 MEMB     2        PA       H8R      hL       0.906700E-02   1.00800           0
       270 MEMB     2        PA       H8S      hL       0.906700E-02   1.00800           0
       271 MEMB     2        PA       C17      cD      -0.196300E-01   12.0100           0
       272 MEMB     2        PA       H7R      hL       0.110410E-01   1.00800           0
       273 MEMB     2        PA       H7S      hL       0.110410E-01   1.00800           0
       274 MEMB     2        PA       C16      cD      -0.244270E-01   12.0100           0
       275 MEMB     2        PA       H6R      hL       0.133340E-01   1.00800           0
       276 MEMB     2        PA       H6S      hL       0.133340E-01   1.00800           0
       277 MEMB     2        PA       C15      cD      -0.293870E-01   12.0100           0
       278 MEMB     2        PA       H5R      hL       0.167630E-01   1.00800           0
       279 MEMB     2        PA       H5S      hL       0.167630E-01   1.00800           0
       280 MEMB     2        PA       C14      cD      -0.300990E-01   12.0100           0
       281 MEMB     2        PA       H4R      hL       0.208770E-01   1.00800           0
       282 MEMB     2        PA       H4S      hL       0.208770E-01   1.00800           0
       283 MEMB     2        PA       C13      cD      -0.488200E-02   12.0100           0
       284 MEMB     2        PA       H3R      hL       0.190070E-01   1.00800           0
       285 MEMB     2        PA       H3S      hL       0.190070E-01   1.00800           0
       286 MEMB     2        PA       C12      cD      -0.149259       12.0100           0
       287 MEMB     2        PA       H2R      hL       0.473450E-01   1.00800           0
       288 MEMB     2        PA       H2S      hL       0.473450E-01   1.00800           0
       289 MEMB     2        PC       C11      cC       0.910403       12.0100           0
       290 MEMB     2        PC       O12      oC      -0.671566       16.0000           0
       291 MEMB     2        PC       O11      oS      -0.575489       16.0000           0
       292 MEMB     2        PC       C1       cA       0.196939       12.0100           0
       293 MEMB     2        PC       HR       hE       0.704690E-01   1.00800           0
       294 MEMB     2        PC       HS       hE       0.704690E-01   1.00800           0
       295 MEMB     2        PC       C2       cA       0.281242       12.0100           0
       296 MEMB     2        PC       HX       hE       0.632530E-01   1.00800           0
       297 MEMB     2        PC       C3       cA       0.174590E-01   12.0100           0
       298 MEMB     2        PC       HA       hE       0.955910E-01   1.00800           0
       299 MEMB     2        PC       HB       hE       0.955910E-01   1.00800           0
       300 MEMB     2        PC       O31      oT      -0.509480       16.0000           0
       301 MEMB     2        PC       P31      pA       1.339721       30.9700           0
       302 MEMB     2        PC       O32      oT      -0.508176       16.0000           0
       303 MEMB     2        PC       C31      cA       0.166801       12.0100           0
       304 MEMB     2        PC       H1A      hE       0.785340E-01   1.00800           0
       305 MEMB     2        PC       H1B      hE       0.785340E-01   1.00800           0
       306 MEMB     2        PC       C32      cA      -0.170824       12.0100           0
       307 MEMB     2        PC       H2A      hX       0.136415       1.00800           0
       308 MEMB     2        PC       H2B      hX       0.136415       1.00800           0
       309 MEMB     2        PC       N31      nA       0.245262       14.0100           0
       310 MEMB     2        PC       C33      cA      -0.338973       12.0100           0
       311 MEMB     2        PC       H3A      hX       0.172230       1.00800           0
       312 MEMB     2        PC       H3B      hX       0.172230       1.00800           0
       313 MEMB     2        PC       H3C      hX       0.172230       1.00800           0
       314 MEMB     2        PC       C34      cA      -0.338973       12.0100           0
       315 MEMB     2        PC       H4A      hX       0.172230       1.00800           0
       316 MEMB     2        PC       H4B      hX       0.172230       1.00800           0
       317 MEMB     2        PC       H4C      hX       0.172230       1.00800           0
       318 MEMB     2        PC       C35      cA      -0.338973       12.0100           0
       319 MEMB     2        PC       H5A      hX       0.172230       1.00800           0
       320 MEMB     2        PC       H5B      hX       0.172230       1.00800           0
       321 MEMB     2        PC       H5C      hX       0.172230       1.00800           0
       322 MEMB     2        PC       O33      oP      -0.875812       16.0000           0
       323 MEMB     2        PC       O34      oP      -0.875812       16.0000           0
       324 MEMB     2        PC       O21      oS      -0.552948       16.0000           0
       325 MEMB     2        PC       C21      cC       0.897613       12.0100           0
       326 MEMB     2        PC       O22      oC      -0.673755       16.0000           0
       327 MEMB     2        OL       C12      cD      -0.143418       12.0100           0
       328 MEMB     2        OL       H2R      hL       0.428610E-01   1.00800           0
       329 MEMB     2        OL       H2S      hL       0.428610E-01   1.00800           0
       330 MEMB     2        OL       C13      cD       0.161900E-02   12.0100           0
       331 MEMB     2        OL       H3R      hL       0.195290E-01   1.00800           0
       332 MEMB     2        OL       H3S      hL       0.195290E-01   1.00800           0
       333 MEMB     2        OL       C14      cD      -0.229600E-01   12.0100           0
       334 MEMB     2        OL       H4R      hL       0.181340E-01   1.00800           0
       335 MEMB     2        OL       H4S      hL       0.181340E-01   1.00800           0
       336 MEMB     2        OL       C15      cD      -0.166920E-01   12.0100           0
       337 MEMB     2        OL       H5R      hL       0.869000E-02   1.00800           0
       338 MEMB     2        OL       H5S      hL       0.869000E-02   1.00800           0
       339 MEMB     2        OL       C16      cD      -0.237890E-01   12.0100           0
       340 MEMB     2        OL       H6R      hL       0.926600E-02   1.00800           0
       341 MEMB     2        OL       H6S      hL       0.926600E-02   1.00800           0
       342 MEMB     2        OL       C17      cD      -0.174950E-01   12.0100           0
       343 MEMB     2        OL       H7R      hL       0.195980E-01   1.00800           0
       344 MEMB     2        OL       H7S      hL       0.195980E-01   1.00800           0
       345 MEMB     2        OL       C18      cD       0.317750E-01   12.0100           0
       346 MEMB     2        OL       H8R      hL       0.326850E-01   1.00800           0
       347 MEMB     2        OL       H8S      hL       0.326850E-01   1.00800           0
       348 MEMB     2        OL       C19      cB      -0.244228       12.0100           0
       349 MEMB     2        OL       H9R      hB       0.131512       1.00800           0
       350 MEMB     2        OL       C110     cB      -0.239284       12.0100           0
       351 MEMB     2        OL       H10R     hB       0.126878       1.00800           0
       352 MEMB     2        OL       C111     cD       0.290590E-01   12.0100           0
       353 MEMB     2        OL       H11R     hL       0.335310E-01   1.00800           0
       354 MEMB     2        OL       H11S     hL       0.335310E-01   1.00800           0
       355 MEMB     2        OL       C112     cD      -0.263530E-01   12.0100           0
       356 MEMB     2        OL       H12R     hL       0.197170E-01   1.00800           0
       357 MEMB     2        OL       H12S     hL       0.197170E-01   1.00800           0
       358 MEMB     2        OL       C113     cD      -0.182570E-01   12.0100           0
       359 MEMB     2        OL       H13R     hL       0.138000E-01   1.00800           0
       360 MEMB     2        OL       H13S     hL       0.138000E-01   1.00800           0
       361 MEMB     2        OL       C114     cD      -0.248490E-01   12.0100           0
       362 MEMB     2        OL       H14R     hL       0.857200E-02   1.00800           0
       363 MEMB     2        OL       H14S     hL       0.857200E-02   1.00800           0
       364 MEMB     2        OL       C115     cD      -0.232470E-01   12.0100           0
       365 MEMB     2        OL       H15R     hL       0.104030E-01   1.00800           0
       366 MEMB     2        OL       H15S     hL       0.104030E-01   1.00800           0
       367 MEMB     2        OL       C116     cD      -0.124880E-01   12.0100           0
       368 MEMB     2        OL       H16R     hL       0.136590E-01   1.00800           0
       369 MEMB     2        OL       H16S     hL       0.136590E-01   1.00800           0
       370 MEMB     2        OL       C117     cD       0.868400E-02   12.0100           0
       371 MEMB     2        OL       H17R     hL       0.100260E-01   1.00800           0
       372 MEMB     2        OL       H17S     hL       0.100260E-01   1.00800           0
       373 MEMB     2        OL       C118     cD      -0.117290       12.0100           0
       374 MEMB     2        OL       H18R     hL       0.266270E-01   1.00800           0
       375 MEMB     2        OL       H18S     hL       0.266270E-01   1.00800           0
       376 MEMB     2        OL       H18T     hL       0.266270E-01   1.00800           0
       377 MEMB     3        PA       C116     cD      -0.125447       12.0100           0
       378 MEMB     3        PA       H16R     hL       0.290470E-01   1.00800           0
       379 MEMB     3        PA       H16S     hL       0.290470E-01   1.00800           0
       380 MEMB     3        PA       H16T     hL       0.290470E-01   1.00800           0
       381 MEMB     3        PA       C115     cD       0.139750E-01   12.0100           0
       382 MEMB     3        PA       H15R     hL       0.929200E-02   1.00800           0
       383 MEMB     3        PA       H15S     hL       0.929200E-02   1.00800           0
       384 MEMB     3        PA       C114     cD      -0.200860E-01   12.0100           0
       385 MEMB     3        PA       H14R     hL       0.159290E-01   1.00800           0
       386 MEMB     3        PA       H14S     hL       0.159290E-01   1.00800           0
       387 MEMB     3        PA       C113     cD      -0.330960E-01   12.0100           0
       388 MEMB     3        PA       H13R     hL       0.146210E-01   1.00800           0
       389 MEMB     3        PA       H13S     hL       0.146210E-01   1.00800           0
       390 MEMB     3        PA       C112     cD      -0.276330E-01   12.0100           0
       391 MEMB     3        PA       H12R     hL       0.113680E-01   1.00800           0
       392 MEMB     3        PA       H12S     hL       0.113680E-01   1.00800           0
       393 MEMB     3        PA       C111     cD      -0.252060E-01   12.0100           0
       394 MEMB     3        PA       H11R     hL       0.143340E-01   1.00800           0
       395 MEMB     3        PA       H11S     hL       0.143340E-01   1.00800           0
       396 MEMB     3        PA       C110     cD      -0.288310E-01   12.0100           0
       397 MEMB     3        PA       H10R     hL       0.146910E-01   1.00800           0
       398 MEMB     3        PA       H10S     hL       0.146910E-01   1.00800           0
       399 MEMB     3        PA       C19      cD      -0.304720E-01   12.0100           0
       400 MEMB     3        PA       H9R      hL       0.138970E-01   1.00800           0
       401 MEMB     3        PA       H9S      hL       0.138970E-01   1.00800           0
       402 MEMB     3        PA       C18      cD      -0.157930E-01   12.0100           0
       403 MEMB     3        PA       H8R      hL       0.906700E-02   1.00800           0
       404 MEMB     3        PA       H8S      hL       0.906700E-02   1.00800           0
       405 MEMB     3        PA       C17      cD      -0.196300E-01   12.0100           0
       406 MEMB     3        PA       H7R      hL       0.110410E-01   1.00800           0
       407 MEMB     3        PA       H7S      hL       0.110410E-01   1.00800           0
       408 MEMB     3        PA       C16      cD      -0.244270E-01   12.0100           0
       409 MEMB     3        PA       H6R      hL       0.133340E-01   1.00800           0
       410 MEMB     3        PA       H6S      hL       0.133340E-01   1.00800           0
       411 MEMB     3        PA       C15      cD      -0.293870E-01   12.0100           0
       412 MEMB     3        PA       H5R      hL       0.167630E-01   1.00800           0
       413 MEMB     3        PA       H5S      hL       0.167630E-01   1.00800           0
       414 MEMB     3        PA       C14      cD      -0.300990E-01   12.0100           0
       415 MEMB     3        PA       H4R      hL       0.208770E-01   1.00800           0
       416 MEMB     3        PA       H4S      hL       0.208770E-01   1.00800           0
       417 MEMB     3        PA       C13      cD      -0.488200E-02   12.0100           0
       418 MEMB     3        PA       H3R      hL       0.190070E-01   1.00800           0
       419 MEMB     3        PA       H3S      hL       0.190070E-01   1.00800           0
       420 MEMB     3        PA       C12      cD      -0.149259       12.0100           0
       421 MEMB     3        PA       H2R      hL       0.473450E-01   1.00800           0
       422 MEMB     3        PA       H2S      hL       0.473450E-01   1.00800           0
       423 MEMB     3        PC       C11      cC       0.910403       12.0100           0
       424 MEMB     3        PC       O12      oC      -0.671566       16.0000           0
       425 MEMB     3        PC       O11      oS      -0.575489       16.0000           0
       426 MEMB     3        PC       C1       cA       0.196939       12.0100           0
       427 MEMB     3        PC       HR       hE       0.704690E-01   1.00800           0
       428 MEMB     3        PC       HS       hE       0.704690E-01   1.00800           0
       429 MEMB     3        PC       C2       cA       0.281242       12.0100           0
       430 MEMB     3        PC       HX       hE       0.632530E-01   1.00800           0
       431 MEMB     3        PC       C3       cA       0.174590E-01   12.0100           0
       432 MEMB     3        PC       HA       hE       0.955910E-01   1.00800           0
       433 MEMB     3        PC       HB       hE       0.955910E-01   1.00800           0
       434 MEMB     3        PC       O31      oT      -0.509480       16.0000           0
       435 MEMB     3        PC       P31      pA       1.339721       30.9700           0
       436 MEMB     3        PC       O32      oT      -0.508176       16.0000           0
       437 MEMB     3        PC       C31      cA       0.166801       12.0100           0
       438 MEMB     3        PC       H1A      hE       0.785340E-01   1.00800           0
       439 MEMB     3        PC       H1B      hE       0.785340E-01   1.00800           0
       440 MEMB     3        PC       C32      cA      -0.170824       12.0100           0
       441 MEMB     3        PC       H2A      hX       0.136415       1.00800           0
       442 MEMB     3        PC       H2B      hX       0.136415       1.00800           0
       443 MEMB     3        PC       N31      nA       0.245262       14.0100           0
       444 MEMB     3        PC       C33      cA      -0.338973       12.0100           0
       445 MEMB     3        PC       H3A      hX       0.172230       1.00800           0
       446 MEMB     3        PC       H3B      hX       0.172230       1.00800           0
       447 MEMB     3        PC       H3C      hX       0.172230       1.00800           0
       448 MEMB     3        PC       C34      cA      -0.338973       12.0100           0
       449 MEMB     3        PC       H4A      hX       0.172230       1.00800           0
       450 MEMB     3        PC       H4B      hX       0.172230       1.00800           0
       451 MEMB     3        PC       H4C      hX       0.172230       1.00800           0
       452 MEMB     3        PC       C35      cA      -0.338973       12.0100           0
       453 MEMB     3        PC       H5A      hX       0.172230       1.00800           0
       454 MEMB     3        PC       H5B      hX       0.172230       1.00800           0
       455 MEMB     3        PC       H5C      hX       0.172230       1.00800           0
       456 MEMB     3        PC       O33      oP      -0.875812       16.0000           0
       457 MEMB     3        PC       O34      oP      -0.875812       16.0000           0
       458 MEMB     3        PC       O21      oS      -0.552948       16.0000           0
       459 MEMB     3        PC       C21      cC       0.897613       12.0100           0
       460 MEMB     3        PC       O22      oC      -0.673755       16.0000           0
       461 MEMB     3        OL       C12      cD      -0.143418       12.0100           0
       462 MEMB     3        OL       H2R      hL       0.428610E-01   1.00800           0
       463 MEMB     3        OL       H2S      hL       0.428610E-01   1.00800           0
       464 MEMB     3        OL       C13      cD       0.161900E-02   12.0100           0
       465 MEMB     3        OL       H3R      hL       0.195290E-01   1.00800           0
       466 MEMB     3        OL       H3S      hL       0.195290E-01   1.00800           0
       467 MEMB     3        OL       C14      cD      -0.229600E-01   12.0100           0
       468 MEMB     3        OL       H4R      hL       0.181340E-01   1.00800           0
       469 MEMB     3        OL       H4S      hL       0.181340E-01   1.00800           0
       470 MEMB     3        OL       C15      cD      -0.166920E-01   12.0100           0
       471 MEMB     3        OL       H5R      hL       0.869000E-02   1.00800           0
       472 MEMB     3        OL       H5S      hL       0.869000E-02   1.00800           0
       473 MEMB     3        OL       C16      cD      -0.237890E-01   12.0100           0
       474 MEMB     3        OL       H6R      hL       0.926600E-02   1.00800           0
       475 MEMB     3        OL       H6S      hL       0.926600E-02   1.00800           0
       476 MEMB     3        OL       C17      cD      -0.174950E-01   12.0100           0
       477 MEMB     3        OL       H7R      hL       0.195980E-01   1.00800           0
       478 MEMB     3        OL       H7S      hL       0.195980E-01   1.00800           0
       479 MEMB     3        OL       C18      cD       0.317750E-01   12.0100           0
       480 MEMB     3        OL       H8R      hL       0.326850E-01   1.00800           0
       481 MEMB     3        OL       H8S      hL       0.326850E-01   1.00800           0
       482 MEMB     3        OL       C19      cB      -0.244228       12.0100           0
       483 MEMB     3        OL       H9R      hB       0.131512       1.00800           0
       484 MEMB     3        OL       C110     cB      -0.239284       12.0100           0
       485 MEMB     3        OL       H10R     hB       0.126878       1.00800           0
       486 MEMB     3        OL       C111     cD       0.290590E-01   12.0100           0
       487 MEMB     3        OL       H11R     hL       0.335310E-01   1.00800           0
       488 MEMB     3        OL       H11S     hL       0.335310E-01   1.00800           0
       489 MEMB     3        OL       C112     cD      -0.263530E-01   12.0100           0
       490 MEMB     3        OL       H12R     hL       0.197170E-01   1.00800           0
       491 MEMB     3        OL       H12S     hL       0.197170E-01   1.00800           0
       492 MEMB     3        OL       C113     cD      -0.182570E-01   12.0100           0
       493 MEMB     3        OL       H13R     hL       0.138000E-01   1.00800           0
       494 MEMB     3        OL       H13S     hL       0.138000E-01   1.00800           0
       495 MEMB     3        OL       C114     cD      -0.248490E-01   12.0100           0
       496 MEMB     3        OL       H14R     hL       0.857200E-02   1.00800           0
       497 MEMB     3        OL       H14S     hL       0.857200E-02   1.00800           0
       498 MEMB     3        OL       C115     cD      -0.232470E-01   12.0100           0
       499 MEMB     3        OL       H15R     hL       0.104030E-01   1.00800           0
       500 MEMB     3        OL       H15S     hL       0.104030E-01   1.00800           0
       501 MEMB     3        OL       C116     cD      -0.124880E-01   12.0100           0
       502 MEMB     3        OL       H16R     hL       0.136590E-01   1.00800           0
       503 MEMB     3        OL       H16S     hL       0.136590E-01   1.00800           0
       504 MEMB     3        OL       C117     cD       0.868400E-02   12.0100           0
       505 MEMB     3        OL       H17R     hL       0.100260E-01   1.00800           0
       506 MEMB     3        OL       H17S     hL       0.100260E-01   1.00800           0
       507 MEMB     3        OL       C118     cD      -0.117290       12.0100           0
       508 MEMB     3        OL       H18R     hL       0.266270E-01   1.00800           0
       509 MEMB     3        OL       H18S     hL       0.266270E-01   1.00800           0
       510 MEMB     3        OL       H18T     hL       0.266270E-01   1.00800           0
       511 MEMB     4        PA       C116     cD      -0.125447       12.0100           0
       512 MEMB     4        PA       H16R     hL       0.290470E-01   1.00800           0
       513 MEMB     4        PA       H16S     hL       0.290470E-01   1.00800           0
       514 MEMB     4        PA       H16T     hL       0.290470E-01   1.00800           0
       515 MEMB     4        PA       C115     cD       0.139750E-01   12.0100           0
       516 MEMB     4        PA       H15R     hL       0.929200E-02   1.00800           0
       517 MEMB     4        PA       H15S     hL       0.929200E-02   1.00800           0
       518 MEMB     4        PA       C114     cD      -0.200860E-01   12.0100           0
       519 MEMB     4        PA       H14R     hL       0.159290E-01   1.00800           0
       520 MEMB     4        PA       H14S     hL       0.159290E-01   1.00800           0
       521 MEMB     4        PA       C113     cD      -0.330960E-01   12.0100           0
       522 MEMB     4        PA       H13R     hL       0.146210E-01   1.00800           0
       523 MEMB     4        PA       H13S     hL       0.146210E-01   1.00800           0
       524 MEMB     4        PA       C112     cD      -0.276330E-01   12.0100           0
       525 MEMB     4        PA       H12R     hL       0.113680E-01   1.00800           0
       526 MEMB     4        PA       H12S     hL       0.113680E-01   1.00800           0
       527 MEMB     4        PA       C111     cD      -0.252060E-01   12.0100           0
       528 MEMB     4        PA       H11R     hL       0.143340E-01   1.00800           0
       529 MEMB     4        PA       H11S     hL       0.143340E-01   1.00800           0
       530 MEMB     4        PA       C110     cD      -0.288310E-01   12.0100           0
       531 MEMB     4        PA       H10R     hL       0.146910E-01   1.00800           0
       532 MEMB     4        PA       H10S     hL       0.146910E-01   1.00800           0
       533 MEMB     4        PA       C19      cD      -0.304720E-01   12.0100           0
       534 MEMB     4        PA       H9R      hL       0.138970E-01   1.00800           0
       535 MEMB     4        PA       H9S      hL       0.138970E-01   1.00800           0
       536 MEMB     4        PA       C18      cD      -0.157930E-01   12.0100           0
       537 MEMB     4        PA       H8R      hL       0.906700E-02   1.00800           0
       538 MEMB     4        PA       H8S      hL       0.906700E-02   1.00800           0
       539 MEMB     4        PA       C17      cD      -0.196300E-01   12.0100           0
       540 MEMB     4        PA       H7R      hL       0.110410E-01   1.00800           0
       541 MEMB     4        PA       H7S      hL       0.110410E-01   1.00800           0
       542 MEMB     4        PA       C16      cD      -0.244270E-01   12.0100           0
       543 MEMB     4        PA       H6R      hL       0.133340E-01   1.00800           0
       544 MEMB     4        PA       H6S      hL       0.133340E-01   1.00800           0
       545 MEMB     4        PA       C15      cD      -0.293870E-01   12.0100           0
       546 MEMB     4        PA       H5R      hL       0.167630E-01   1.00800           0
       547 MEMB     4        PA       H5S      hL       0.167630E-01   1.00800           0
       548 MEMB     4        PA       C14      cD      -0.300990E-01   12.0100           0
       549 MEMB     4        PA       H4R      hL       0.208770E-01   1.00800           0
       550 MEMB     4        PA       H4S      hL       0.208770E-01   1.00800           0
       551 MEMB     4        PA       C13      cD      -0.488200E-02   12.0100           0
       552 MEMB     4        PA       H3R      hL       0.190070E-01   1.00800           0
       553 MEMB     4        PA       H3S      hL       0.190070E-01   1.00800           0
       554 MEMB     4        PA       C12      cD      -0.149259       12.0100           0
       555 MEMB     4        PA       H2R      hL       0.473450E-01   1.00800           0
       556 MEMB     4        PA       H2S      hL       0.473450E-01   1.00800           0
       557 MEMB     4        PC       C11      cC       0.910403       12.0100           0
       558 MEMB     4        PC       O12      oC      -0.671566       16.0000           0
       559 MEMB     4        PC       O11      oS      -0.575489       16.0000           0
       560 MEMB     4        PC       C1       cA       0.196939       12.0100           0
       561 MEMB     4        PC       HR       hE       0.704690E-01   1.00800           0
       562 MEMB     4        PC       HS       hE       0.704690E-01   1.00800           0
       563 MEMB     4        PC       C2       cA       0.281242       12.0100           0
       564 MEMB     4        PC       HX       hE       0.632530E-01   1.00800           0
       565 MEMB     4        PC       C3       cA       0.174590E-01   12.0100           0
       566 MEMB     4        PC       HA       hE       0.955910E-01   1.00800           0
       567 MEMB     4        PC       HB       hE       0.955910E-01   1.00800           0
       568 MEMB     4        PC       O31      oT      -0.509480       16.0000           0
       569 MEMB     4        PC       P31      pA       1.339721       30.9700           0
       570 MEMB     4        PC       O32      oT      -0.508176       16.0000           0
       571 MEMB     4        PC       C31      cA       0.166801       12.0100           0
       572 MEMB     4        PC       H1A      hE       0.785340E-01   1.00800           0
       573 MEMB     4        PC       H1B      hE       0.785340E-01   1.00800           0
       574 MEMB     4        PC       C32      cA      -0.170824       12.0100           0
       575 MEMB     4        PC       H2A      hX       0.136415       1.00800           0
       576 MEMB     4        PC       H2B      hX       0.136415       1.00800           0
       577 MEMB     4        PC       N31      nA       0.245262       14.0100           0
       578 MEMB     4        PC       C33      cA      -0.338973       12.0100           0
       579 MEMB     4        PC       H3A      hX       0.172230       1.00800           0
       580 MEMB     4        PC       H3B      hX       0.172230       1.00800           0
       581 MEMB     4        PC       H3C      hX       0.172230       1.00800           0
       582 MEMB     4        PC       C34      cA      -0.338973       12.0100           0
       583 MEMB     4        PC       H4A      hX       0.172230       1.00800           0
       584 MEMB     4        PC       H4B      hX       0.172230       1.00800           0
       585 MEMB     4        PC       H4C      hX       0.172230       1.00800           0
       586 MEMB     4        PC       C35      cA      -0.338973       12.0100           0
       587 MEMB     4        PC       H5A      hX       0.172230       1.00800           0
       588 MEMB     4        PC       H5B      hX       0.172230       1.00800           0
       589 MEMB     4        PC       H5C      hX       0.172230       1.00800           0
       590 MEMB     4        PC       O33      oP      -0.875812       16.0000           0
       591 MEMB     4        PC       O34      oP      -0.875812       16.0000           0
       592 MEMB     4        PC       O21      oS      -0.552948       16.0000           0
       593 MEMB     4        PC       C21      cC       0.897613       12.0100           0
       594 MEMB     4        PC       O22      oC      -0.673755       16.0000           0
       595 MEMB     4        OL       C12      cD      -0.143418       12.0100           0
       596 MEMB     4        OL       H2R      hL       0.428610E-01   1.00800           0
       597 MEMB     4        OL       H2S      hL       0.428610E-01   1.00800           0
       598 MEMB     4        OL       C13      cD       0.161900E-02   12.0100           0
       599 MEMB     4        OL       H3R      hL       0.195290E-01   1.00800           0
       600 MEMB     4        OL       H3S      hL       0.195290E-01   1.00800           0
       601 MEMB     4        OL       C14      cD      -0.229600E-01   12.0100           0
       602 MEMB     4        OL       H4R      hL       0.181340E-01   1.00800           0
       603 MEMB     4        OL       H4S      hL       0.181340E-01   1.00800           0
       604 MEMB     4        OL       C15      cD      -0.166920E-01   12.0100           0
       605 MEMB     4        OL       H5R      hL       0.869000E-02   1.00800           0
       606 MEMB     4        OL       H5S      hL       0.869000E-02   1.00800           0
       607 MEMB     4        OL       C16      cD      -0.237890E-01   12.0100           0
       608 MEMB     4        OL       H6R      hL       0.926600E-02   1.00800           0
       609 MEMB     4        OL       H6S      hL       0.926600E-02   1.00800           0
       610 MEMB     4        OL       C17      cD      -0.174950E-01   12.0100           0
       611 MEMB     4        OL       H7R      hL       0.195980E-01   1.00800           0
       612 MEMB     4        OL       H7S      hL       0.195980E-01   1.00800           0
       613 MEMB     4        OL       C18      cD       0.317750E-01   12.0100           0
       614 MEMB     4        OL       H8R      hL       0.326850E-01   1.00800           0
       615 MEMB     4        OL       H8S      hL       0.326850E-01   1.00800           0
       616 MEMB     4        OL       C19      cB      -0.244228       12.0100           0
       617 MEMB     4        OL       H9R      hB       0.131512       1.00800           0
       618 MEMB     4        OL       C110     cB      -0.239284       12.0100           0
       619 MEMB     4        OL       H10R     hB       0.126878       1.00800           0
       620 MEMB     4        OL       C111     cD       0.290590E-01   12.0100           0
       621 MEMB     4        OL       H11R     hL       0.335310E-01   1.00800           0
       622 MEMB     4        OL       H11S     hL       0.335310E-01   1.00800           0
       623 MEMB     4        OL       C112     cD      -0.263530E-01   12.0100           0
       624 MEMB     4        OL       H12R     hL       0.197170E-01   1.00800           0
       625 MEMB     4        OL       H12S     hL       0.197170E-01   1.00800           0
       626 MEMB     4        OL       C113     cD      -0.182570E-01   12.0100           0
       627 MEMB     4        OL       H13R     hL       0.138000E-01   1.00800           0
       628 MEMB     4        OL       H13S     hL       0.138000E-01   1.00800           0
       629 MEMB     4        OL       C114     cD      -0.248490E-01   12.0100           0
       630 MEMB     4        OL       H14R     hL       0.857200E-02   1.00800           0
       631 MEMB     4        OL       H14S     hL       0.857200E-02   1.00800           0
       632 MEMB     4        OL       C115     cD      -0.232470E-01   12.0100           0
       633 MEMB     4        OL       H15R     hL       0.104030E-01   1.00800           0
       634 MEMB     4        OL       H15S     hL       0.104030E-01   1.00800           0
       635 MEMB     4        OL       C116     cD      -0.124880E-01   12.0100           0
       636 MEMB     4        OL       H16R     hL       0.136590E-01   1.00800           0
       637 MEMB     4        OL       H16S     hL       0.136590E-01   1.00800           0
       638 MEMB     4        OL       C117     cD       0.868400E-02   12.0100           0
       639 MEMB     4        OL       H17R     hL       0.100260E-01   1.00800           0
       640 MEMB     4        OL       H17S     hL       0.100260E-01   1.00800           0
       641 MEMB     4        OL       C118     cD      -0.117290       12.0100           0
       642 MEMB     4        OL       H18R     hL       0.266270E-01   1.00800           0
       643 MEMB     4        OL       H18S     hL       0.266270E-01   1.00800           0
       644 MEMB     4        OL       H18T     hL       0.266270E-01   1.00800           0
       645 MEMB     5        PA       C116     cD      -0.125447       12.0100           0
       646 MEMB     5        PA       H16R     hL       0.290470E-01   1.00800           0
       647 MEMB     5        PA       H16S     hL       0.290470E-01   1.00800           0
       648 MEMB     5        PA       H16T     hL       0.290470E-01   1.00800           0
       649 MEMB     5        PA       C115     cD       0.139750E-01   12.0100           0
       650 MEMB     5        PA       H15R     hL       0.929200E-02   1.00800           0
       651 MEMB     5        PA       H15S     hL       0.929200E-02   1.00800           0
       652 MEMB     5        PA       C114     cD      -0.200860E-01   12.0100           0
       653 MEMB     5        PA       H14R     hL       0.159290E-01   1.00800           0
       654 MEMB     5        PA       H14S     hL       0.159290E-01   1.00800           0
       655 MEMB     5        PA       C113     cD      -0.330960E-01   12.0100           0
       656 MEMB     5        PA       H13R     hL       0.146210E-01   1.00800           0
       657 MEMB     5        PA       H13S     hL       0.146210E-01   1.00800           0
       658 MEMB     5        PA       C112     cD      -0.276330E-01   12.0100           0
       659 MEMB     5        PA       H12R     hL       0.113680E-01   1.00800           0
       660 MEMB     5        PA       H12S     hL       0.113680E-01   1.00800           0
       661 MEMB     5        PA       C111     cD      -0.252060E-01   12.0100           0
       662 MEMB     5        PA       H11R     hL       0.143340E-01   1.00800           0
       663 MEMB     5        PA       H11S     hL       0.143340E-01   1.00800           0
       664 MEMB     5        PA       C110     cD      -0.288310E-01   12.0100           0
       665 MEMB     5        PA       H10R     hL       0.146910E-01   1.00800           0
       666 MEMB     5        PA       H10S     hL       0.146910E-01   1.00800           0
       667 MEMB     5        PA       C19      cD      -0.304720E-01   12.0100           0
       668 MEMB     5        PA       H9R      hL       0.138970E-01   1.00800           0
       669 MEMB     5        PA       H9S      hL       0.138970E-01   1.00800           0
       670 MEMB     5        PA       C18      cD      -0.157930E-01   12.0100           0
       671 MEMB     5        PA       H8R      hL       0.906700E-02   1.00800           0
       672 MEMB     5        PA       H8S      hL       0.906700E-02   1.00800           0
       673 MEMB     5        PA       C17      cD      -0.196300E-01   12.0100           0
       674 MEMB     5        PA       H7R      hL       0.110410E-01   1.00800           0
       675 MEMB     5        PA       H7S      hL       0.110410E-01   1.00800           0
       676 MEMB     5        PA       C16      cD      -0.244270E-01   12.0100           0
       677 MEMB     5        PA       H6R      hL       0.133340E-01   1.00800           0
       678 MEMB     5        PA       H6S      hL       0.133340E-01   1.00800           0
       679 MEMB     5        PA       C15      cD      -0.293870E-01   12.0100           0
       680 MEMB     5        PA       H5R      hL       0.167630E-01   1.00800           0
       681 MEMB     5        PA       H5S      hL       0.167630E-01   1.00800           0
       682 MEMB     5        PA       C14      cD      -0.300990E-01   12.0100           0
       683 MEMB     5        PA       H4R      hL       0.208770E-01   1.00800           0
       684 MEMB     5        PA       H4S      hL       0.208770E-01   1.00800           0
       685 MEMB     5        PA       C13      cD      -0.488200E-02   12.0100           0
       686 MEMB     5        PA       H3R      hL       0.190070E-01   1.00800           0
       687 MEMB     5        PA       H3S      hL       0.190070E-01   1.00800           0
       688 MEMB     5        PA       C12      cD      -0.149259       12.0100           0
       689 MEMB     5        PA       H2R      hL       0.473450E-01   1.00800           0
       690 MEMB     5        PA       H2S      hL       0.473450E-01   1.00800           0
       691 MEMB     5        PC       C11      cC       0.910403       12.0100           0
       692 MEMB     5        PC       O12      oC      -0.671566       16.0000           0
       693 MEMB     5        PC       O11      oS      -0.575489       16.0000           0
       694 MEMB     5        PC       C1       cA       0.196939       12.0100           0
       695 MEMB     5        PC       HR       hE       0.704690E-01   1.00800           0
       696 MEMB     5        PC       HS       hE       0.704690E-01   1.00800           0
       697 MEMB     5        PC       C2       cA       0.281242       12.0100           0
       698 MEMB     5        PC       HX       hE       0.632530E-01   1.00800           0
       699 MEMB     5        PC       C3       cA       0.174590E-01   12.0100           0
       700 MEMB     5        PC       HA       hE       0.955910E-01   1.00800           0
       701 MEMB     5        PC       HB       hE       0.955910E-01   1.00800           0
       702 MEMB     5        PC       O31      oT      -0.509480       16.0000           0
       703 MEMB     5        PC       P31      pA       1.339721       30.9700           0
       704 MEMB     5        PC       O32      oT      -0.508176       16.0000           0
       705 MEMB     5        PC       C31      cA       0.166801       12.0100           0
       706 MEMB     5        PC       H1A      hE       0.785340E-01   1.00800           0
       707 MEMB     5        PC       H1B      hE       0.785340E-01   1.00800           0
       708 MEMB     5        PC       C32      cA      -0.170824       12.0100           0
       709 MEMB     5        PC       H2A      hX       0.136415       1.00800           0
       710 MEMB     5        PC       H2B      hX       0.136415       1.00800           0
       711 MEMB     5        PC       N31      nA       0.245262       14.0100           0
       712 MEMB     5        PC       C33      cA      -0.338973       12.0100           0
       713 MEMB     5        PC       H3A      hX       0.172230       1.00800           0
       714 MEMB     5        PC       H3B      hX       0.172230       1.00800           0
       715 MEMB     5        PC       H3C      hX       0.172230       1.00800           0
       716 MEMB     5        PC       C34      cA      -0.338973       12.0100           0
       717 MEMB     5        PC       H4A      hX       0.172230       1.00800           0
       718 MEMB     5        PC       H4B      hX       0.172230       1.00800           0
       719 MEMB     5        PC       H4C      hX       0.172230       1.00800           0
       720 MEMB     5        PC       C35      cA      -0.338973       12.0100           0
       721 MEMB     5        PC       H5A      hX       0.172230       1.00800           0
       722 MEMB     5        PC       H5B      hX       0.172230       1.00800           0
       723 MEMB     5        PC       H5C      hX       0.172230       1.00800           0
       724 MEMB     5        PC       O33      oP      -0.875812       16.0000           0
       725 MEMB     5        PC       O34      oP      -0.875812       16.0000           0
       726 MEMB     5        PC       O21      oS      -0.552948       16.0000           0
       727 MEMB     5        PC       C21      cC       0.897613       12.0100           0
       728 MEMB     5        PC       O22      oC      -0.673755       16.0000           0
       729 MEMB     5        OL       C12      cD      -0.143418       12.0100           0
       730 MEMB     5        OL       H2R      hL       0.428610E-01   1.00800           0
       731 MEMB     5        OL       H2S      hL       0.428610E-01   1.00800           0
       732 MEMB     5        OL       C13      cD       0.161900E-02   12.0100           0
       733 MEMB     5        OL       H3R      hL       0.195290E-01   1.00800           0
       734 MEMB     5        OL       H3S      hL       0.195290E-01   1.00800           0
       735 MEMB     5        OL       C14      cD      -0.229600E-01   12.0100           0
       736 MEMB     5        OL       H4R      hL       0.181340E-01   1.00800           0
       737 MEMB     5        OL       H4S      hL       0.181340E-01   1.00800           0
       738 MEMB     5        OL       C15      cD      -0.166920E-01   12.0100           0
       739 MEMB     5        OL       H5R      hL       0.869000E-02   1.00800           0
       740 MEMB     5        OL       H5S      hL       0.869000E-02   1.00800           0
       741 MEMB     5        OL       C16      cD      -0.237890E-01   12.0100           0
       742 MEMB     5        OL       H6R      hL       0.926600E-02   1.00800           0
       743 MEMB     5        OL       H6S      hL       0.926600E-02   1.00800           0
       744 MEMB     5        OL       C17      cD      -0.174950E-01   12.0100           0
       745 MEMB     5        OL       H7R      hL       0.195980E-01   1.00800           0
       746 MEMB     5        OL       H7S      hL       0.195980E-01   1.00800           0
       747 MEMB     5        OL       C18      cD       0.317750E-01   12.0100           0
       748 MEMB     5        OL       H8R      hL       0.326850E-01   1.00800           0
       749 MEMB     5        OL       H8S      hL       0.326850E-01   1.00800           0
       750 MEMB     5        OL       C19      cB      -0.244228       12.0100           0
       751 MEMB     5        OL       H9R      hB       0.131512       1.00800           0
       752 MEMB     5        OL       C110     cB      -0.239284       12.0100           0
       753 MEMB     5        OL       H10R     hB       0.126878       1.00800           0
       754 MEMB     5        OL       C111     cD       0.290590E-01   12.0100           0
       755 MEMB     5        OL       H11R     hL       0.335310E-01   1.00800           0
       756 MEMB     5        OL       H11S     hL       0.335310E-01   1.00800           0
       757 MEMB     5        OL       C112     cD      -0.263530E-01   12.0100           0
       758 MEMB     5        OL       H12R     hL       0.197170E-01   1.00800           0
       759 MEMB     5        OL       H12S     hL       0.197170E-01   1.00800           0
       760 MEMB     5        OL       C113     cD      -0.182570E-01   12.0100           0
       761 MEMB     5        OL       H13R     hL       0.138000E-01   1.00800           0
       762 MEMB     5        OL       H13S     hL       0.138000E-01   1.00800           0
       763 MEMB     5        OL       C114     cD      -0.248490E-01   12.0100           0
       764 MEMB     5        OL       H14R     hL       0.857200E-02   1.00800           0
       765 MEMB     5        OL       H14S     hL       0.857200E-02   1.00800           0
       766 MEMB     5        OL       C115     cD      -0.232470E-01   12.0100           0
       767 MEMB     5        OL       H15R     hL       0.104030E-01   1.00800           0
       768 MEMB     5        OL       H15S     hL       0.104030E-01   1.00800           0
       769 MEMB     5        OL       C116     cD      -0.124880E-01   12.0100           0
       770 MEMB     5        OL       H16R     hL       0.136590E-01   1.00800           0
       771 MEMB     5        OL       H16S     hL       0.136590E-01   1.00800           0
       772 MEMB     5        OL       C117     cD       0.868400E-02   12.0100           0
       773 MEMB     5        OL       H17R     hL       0.100260E-01   1.00800           0
       774 MEMB     5        OL       H17S     hL       0.100260E-01   1.00800           0
       775 MEMB     5        OL       C118     cD      -0.117290       12.0100           0
       776 MEMB     5        OL       H18R     hL       0.266270E-01   1.00800           0
       777 MEMB     5        OL       H18S     hL       0.266270E-01   1.00800           0
       778 MEMB     5        OL       H18T     hL       0.266270E-01   1.00800           0
       779 MEMB     6        PA       C116     cD      -0.125447       12.0100           0
       780 MEMB     6        PA       H16R     hL       0.290470E-01   1.00800           0
       781 MEMB     6        PA       H16S     hL       0.290470E-01   1.00800           0
       782 MEMB     6        PA       H16T     hL       0.290470E-01   1.00800           0
       783 MEMB     6        PA       C115     cD       0.139750E-01   12.0100           0
       784 MEMB     6        PA       H15R     hL       0.929200E-02   1.00800           0
       785 MEMB     6        PA       H15S     hL       0.929200E-02   1.00800           0
       786 MEMB     6        PA       C114     cD      -0.200860E-01   12.0100           0
       787 MEMB     6        PA       H14R     hL       0.159290E-01   1.00800           0
       788 MEMB     6        PA       H14S     hL       0.159290E-01   1.00800           0
       789 MEMB     6        PA       C113     cD      -0.330960E-01   12.0100           0
       790 MEMB     6        PA       H13R     hL       0.146210E-01   1.00800           0
       791 MEMB     6        PA       H13S     hL       0.146210E-01   1.00800           0
       792 MEMB     6        PA       C112     cD      -0.276330E-01   12.0100           0
       793 MEMB     6        PA       H12R     hL       0.113680E-01   1.00800           0
       794 MEMB     6        PA       H12S     hL       0.113680E-01   1.00800           0
       795 MEMB     6        PA       C111     cD      -0.252060E-01   12.0100           0
       796 MEMB     6        PA       H11R     hL       0.143340E-01   1.00800           0
       797 MEMB     6        PA       H11S     hL       0.143340E-01   1.00800           0
       798 MEMB     6        PA       C110     cD      -0.288310E-01   12.0100           0
       799 MEMB     6        PA       H10R     hL       0.146910E-01   1.00800           0
       800 MEMB     6        PA       H10S     hL       0.146910E-01   1.00800           0
       801 MEMB     6        PA       C19      cD      -0.304720E-01   12.0100           0
       802 MEMB     6        PA       H9R      hL       0.138970E-01   1.00800           0
       803 MEMB     6        PA       H9S      hL       0.138970E-01   1.00800           0
       804 MEMB     6        PA       C18      cD      -0.157930E-01   12.0100           0
       805 MEMB     6        PA       H8R      hL       0.906700E-02   1.00800           0
       806 MEMB     6        PA       H8S      hL       0.906700E-02   1.00800           0
       807 MEMB     6        PA       C17      cD      -0.196300E-01   12.0100           0
       808 MEMB     6        PA       H7R      hL       0.110410E-01   1.00800           0
       809 MEMB     6        PA       H7S      hL       0.110410E-01   1.00800           0
       810 MEMB     6        PA       C16      cD      -0.244270E-01   12.0100           0
       811 MEMB     6        PA       H6R      hL       0.133340E-01   1.00800           0
       812 MEMB     6        PA       H6S      hL       0.133340E-01   1.00800           0
       813 MEMB     6        PA       C15      cD      -0.293870E-01   12.0100           0
       814 MEMB     6        PA       H5R      hL       0.167630E-01   1.00800           0
       815 MEMB     6        PA       H5S      hL       0.167630E-01   1.00800           0
       816 MEMB     6        PA       C14      cD      -0.300990E-01   12.0100           0
       817 MEMB     6        PA       H4R      hL       0.208770E-01   1.00800           0
       818 MEMB     6        PA       H4S      hL       0.208770E-01   1.00800           0
       819 MEMB     6        PA       C13      cD      -0.488200E-02   12.0100           0
       820 MEMB     6        PA       H3R      hL       0.190070E-01   1.00800           0
       821 MEMB     6        PA       H3S      hL       0.190070E-01   1.00800           0
       822 MEMB     6        PA       C12      cD      -0.149259       12.0100           0
       823 MEMB     6        PA       H2R      hL       0.473450E-01   1.00800           0
       824 MEMB     6        PA       H2S      hL       0.473450E-01   1.00800           0
       825 MEMB     6        PC       C11      cC       0.910403       12.0100           0
       826 MEMB     6        PC       O12      oC      -0.671566       16.0000           0
       827 MEMB     6        PC       O11      oS      -0.575489       16.0000           0
       828 MEMB     6        PC       C1       cA       0.196939       12.0100           0
       829 MEMB     6        PC       HR       hE       0.704690E-01   1.00800           0
       830 MEMB     6        PC       HS       hE       0.704690E-01   1.00800           0
       831 MEMB     6        PC       C2       cA       0.281242       12.0100           0
       832 MEMB     6        PC       HX       hE       0.632530E-01   1.00800           0
       833 MEMB     6        PC       C3       cA       0.174590E-01   12.0100           0
       834 MEMB     6        PC       HA       hE       0.955910E-01   1.00800           0
       835 MEMB     6        PC       HB       hE       0.955910E-01   1.00800           0
       836 MEMB     6        PC       O31      oT      -0.509480       16.0000           0
       837 MEMB     6        PC       P31      pA       1.339721       30.9700           0
       838 MEMB     6        PC       O32      oT      -0.508176       16.0000           0
       839 MEMB     6        PC       C31      cA       0.166801       12.0100           0
       840 MEMB     6        PC       H1A      hE       0.785340E-01   1.00800           0
       841 MEMB     6        PC       H1B      hE       0.785340E-01   1.00800           0
       842 MEMB     6        PC       C32      cA      -0.170824       12.0100           0
       843 MEMB     6        PC       H2A      hX       0.136415       1.00800           0
       844 MEMB     6        PC       H2B      hX       0.136415       1.00800           0
       845 MEMB     6        PC       N31      nA       0.245262       14.0100           0
       846 MEMB     6        PC       C33      cA      -0.338973       12.0100           0
       847 MEMB     6        PC       H3A      hX       0.172230       1.00800           0
       848 MEMB     6        PC       H3B      hX       0.172230       1.00800           0
       849 MEMB     6        PC       H3C      hX       0.172230       1.00800           0
       850 MEMB     6        PC       C34      cA      -0.338973       12.0100           0
       851 MEMB     6        PC       H4A      hX       0.172230       1.00800           0
       852 MEMB     6        PC       H4B      hX       0.172230       1.00800           0
       853 MEMB     6        PC       H4C      hX       0.172230       1.00800           0
       854 MEMB     6        PC       C35      cA      -0.338973       12.0100           0
       855 MEMB     6        PC       H5A      hX       0.172230       1.00800           0
       856 MEMB     6        PC       H5B      hX       0.172230       1.00800           0
       857 MEMB     6        PC       H5C      hX       0.172230       1.00800           0
       858 MEMB     6        PC       O33      oP      -0.875812       16.0000           0
       859 MEMB     6        PC       O34      oP      -0.875812       16.0000           0
       860 MEMB     6        PC       O21      oS      -0.552948       16.0000           0
       861 MEMB     6        PC       C21      cC       0.897613       12.0100           0
       862 MEMB     6        PC       O22      oC      -0.673755       16.0000           0
       863 MEMB     6        OL       C12      cD      -0.143418       12.0100           0
       864 MEMB     6        OL       H2R      hL       0.428610E-01   1.00800           0
       865 MEMB     6        OL       H2S      hL       0.428610E-01   1.00800           0
       866 MEMB     6        OL       C13      cD       0.161900E-02   12.0100           0
       867 MEMB     6        OL       H3R      hL       0.195290E-01   1.00800           0
       868 MEMB     6        OL       H3S      hL       0.195290E-01   1.00800           0
       869 MEMB     6        OL       C14      cD      -0.229600E-01   12.0100           0
       870 MEMB     6        OL       H4R      hL       0.181340E-01   1.00800           0
       871 MEMB     6        OL       H4S      hL       0.181340E-01   1.00800           0
       872 MEMB     6        OL       C15      cD      -0.166920E-01   12.0100           0
       873 MEMB     6        OL       H5R      hL       0.869000E-02   1.00800           0
       874 MEMB     6        OL       H5S      hL       0.869000E-02   1.00800           0
       875 MEMB     6        OL       C16      cD      -0.237890E-01   12.0100           0
       876 MEMB     6        OL       H6R      hL       0.926600E-02   1.00800           0
       877 MEMB     6        OL       H6S      hL       0.926600E-02   1.00800           0
       878 MEMB     6        OL       C17      cD      -0.174950E-01   12.0100           0
       879 MEMB     6        OL       H7R      hL       0.195980E-01   1.00800           0
       880 MEMB     6        OL       H7S      hL       0.195980E-01   1.00800           0
       881 MEMB     6        OL       C18      cD       0.317750E-01   12.0100           0
       882 MEMB     6        OL       H8R      hL       0.326850E-01   1.00800           0
       883 MEMB     6        OL       H8S      hL       0.326850E-01   1.00800           0
       884 MEMB     6        OL       C19      cB      -0.244228       12.0100           0
       885 MEMB     6        OL       H9R      hB       0.131512       1.00800           0
       886 MEMB     6        OL       C110     cB      -0.239284       12.0100           0
       887 MEMB     6        OL       H10R     hB       0.126878       1.00800           0
       888 MEMB     6        OL       C111     cD       0.290590E-01   12.0100           0
       889 MEMB     6        OL       H11R     hL       0.335310E-01   1.00800           0
       890 MEMB     6        OL       H11S     hL       0.335310E-01   1.00800           0
       891 MEMB     6        OL       C112     cD      -0.263530E-01   12.0100           0
       892 MEMB     6        OL       H12R     hL       0.197170E-01   1.00800           0
       893 MEMB     6        OL       H12S     hL       0.197170E-01   1.00800           0
       894 MEMB     6        OL       C113     cD      -0.182570E-01   12.0100           0
       895 MEMB     6        OL       H13R     hL       0.138000E-01   1.00800           0
       896 MEMB     6        OL       H13S     hL       0.138000E-01   1.00800           0
       897 MEMB     6        OL       C114     cD      -0.248490E-01   12.0100           0
       898 MEMB     6        OL       H14R     hL       0.857200E-02   1.00800           0
       899 MEMB     6        OL       H14S     hL       0.857200E-02   1.00800           0
       900 MEMB     6        OL       C115     cD      -0.232470E-01   12.0100           0
       901 MEMB     6        OL       H15R     hL       0.104030E-01   1.00800           0
       902 MEMB     6        OL       H15S     hL       0.104030E-01   1.00800           0
       903 MEMB     6        OL       C116     cD      -0.124880E-01   12.0100           0
       904 MEMB     6        OL       H16R     hL       0.136590E-01   1.00800           0
       905 MEMB     6        OL       H16S     hL       0.136590E-01   1.00800           0
       906 MEMB     6        OL       C117     cD       0.868400E-02   12.0100           0
       907 MEMB     6        OL       H17R     hL       0.100260E-01   1.00800           0
       908 MEMB     6        OL       H17S     hL       0.100260E-01   1.00800           0
       909 MEMB     6        OL       C118     cD      -0.117290       12.0100           0
       910 MEMB     6        OL       H18R     hL       0.266270E-01   1.00800           0
       911 MEMB     6        OL       H18S     hL       0.266270E-01   1.00800           0
       912 MEMB     6        OL       H18T     hL       0.266270E-01   1.00800           0
       913 MEMB     7        PA       C116     cD      -0.125447       12.0100           0
       914 MEMB     7        PA       H16R     hL       0.290470E-01   1.00800           0
       915 MEMB     7        PA       H16S     hL       0.290470E-01   1.00800           0
       916 MEMB     7        PA       H16T     hL       0.290470E-01   1.00800           0
       917 MEMB     7        PA       C115     cD       0.139750E-01   12.0100           0
       918 MEMB     7        PA       H15R     hL       0.929200E-02   1.00800           0
       919 MEMB     7        PA       H15S     hL       0.929200E-02   1.00800           0
       920 MEMB     7        PA       C114     cD      -0.200860E-01   12.0100           0
       921 MEMB     7        PA       H14R     hL       0.159290E-01   1.00800           0
       922 MEMB     7        PA       H14S     hL       0.159290E-01   1.00800           0
       923 MEMB     7        PA       C113     cD      -0.330960E-01   12.0100           0
       924 MEMB     7        PA       H13R     hL       0.146210E-01   1.00800           0
       925 MEMB     7        PA       H13S     hL       0.146210E-01   1.00800           0
       926 MEMB     7        PA       C112     cD      -0.276330E-01   12.0100           0
       927 MEMB     7        PA       H12R     hL       0.113680E-01   1.00800           0
       928 MEMB     7        PA       H12S     hL       0.113680E-01   1.00800           0
       929 MEMB     7        PA       C111     cD      -0.252060E-01   12.0100           0
       930 MEMB     7        PA       H11R     hL       0.143340E-01   1.00800           0
       931 MEMB     7        PA       H11S     hL       0.143340E-01   1.00800           0
       932 MEMB     7        PA       C110     cD      -0.288310E-01   12.0100           0
       933 MEMB     7        PA       H10R     hL       0.146910E-01   1.00800           0
       934 MEMB     7        PA       H10S     hL       0.146910E-01   1.00800           0
       935 MEMB     7        PA       C19      cD      -0.304720E-01   12.0100           0
       936 MEMB     7        PA       H9R      hL       0.138970E-01   1.00800           0
       937 MEMB     7        PA       H9S      hL       0.138970E-01   1.00800           0
       938 MEMB     7        PA       C18      cD      -0.157930E-01   12.0100           0
       939 MEMB     7        PA       H8R      hL       0.906700E-02   1.00800           0
       940 MEMB     7        PA       H8S      hL       0.906700E-02   1.00800           0
       941 MEMB     7        PA       C17      cD      -0.196300E-01   12.0100           0
       942 MEMB     7        PA       H7R      hL       0.110410E-01   1.00800           0
       943 MEMB     7        PA       H7S      hL       0.110410E-01   1.00800           0
       944 MEMB     7        PA       C16      cD      -0.244270E-01   12.0100           0
       945 MEMB     7        PA       H6R      hL       0.133340E-01   1.00800           0
       946 MEMB     7        PA       H6S      hL       0.133340E-01   1.00800           0
       947 MEMB     7        PA       C15      cD      -0.293870E-01   12.0100           0
       948 MEMB     7        PA       H5R      hL       0.167630E-01   1.00800           0
       949 MEMB     7        PA       H5S      hL       0.167630E-01   1.00800           0
       950 MEMB     7        PA       C14      cD      -0.300990E-01   12.0100           0
       951 MEMB     7        PA       H4R      hL       0.208770E-01   1.00800           0
       952 MEMB     7        PA       H4S      hL       0.208770E-01   1.00800           0
       953 MEMB     7        PA       C13      cD      -0.488200E-02   12.0100           0
       954 MEMB     7        PA       H3R      hL       0.190070E-01   1.00800           0
       955 MEMB     7        PA       H3S      hL       0.190070E-01   1.00800           0
       956 MEMB     7        PA       C12      cD      -0.149259       12.0100           0
       957 MEMB     7        PA       H2R      hL       0.473450E-01   1.00800           0
       958 MEMB     7        PA       H2S      hL       0.473450E-01   1.00800           0
       959 MEMB     7        PC       C11      cC       0.910403       12.0100           0
       960 MEMB     7        PC       O12      oC      -0.671566       16.0000           0
       961 MEMB     7        PC       O11      oS      -0.575489       16.0000           0
       962 MEMB     7        PC       C1       cA       0.196939       12.0100           0
       963 MEMB     7        PC       HR       hE       0.704690E-01   1.00800           0
       964 MEMB     7        PC       HS       hE       0.704690E-01   1.00800           0
       965 MEMB     7        PC       C2       cA       0.281242       12.0100           0
       966 MEMB     7        PC       HX       hE       0.632530E-01   1.00800           0
       967 MEMB     7        PC       C3       cA       0.174590E-01   12.0100           0
       968 MEMB     7        PC       HA       hE       0.955910E-01   1.00800           0
       969 MEMB     7        PC       HB       hE       0.955910E-01   1.00800           0
       970 MEMB     7        PC       O31      oT      -0.509480       16.0000           0
       971 MEMB     7        PC       P31      pA       1.339721       30.9700           0
       972 MEMB     7        PC       O32      oT      -0.508176       16.0000           0
       973 MEMB     7        PC       C31      cA       0.166801       12.0100           0
       974 MEMB     7        PC       H1A      hE       0.785340E-01   1.00800           0
       975 MEMB     7        PC       H1B      hE       0.785340E-01   1.00800           0
       976 MEMB     7        PC       C32      cA      -0.170824       12.0100           0
       977 MEMB     7        PC       H2A      hX       0.136415       1.00800           0
       978 MEMB     7        PC       H2B      hX       0.136415       1.00800           0
       979 MEMB     7        PC       N31      nA       0.245262       14.0100           0
       980 MEMB     7        PC       C33      cA      -0.338973       12.0100           0
       981 MEMB     7        PC       H3A      hX       0.172230       1.00800           0
       982 MEMB     7        PC       H3B      hX       0.172230       1.00800           0
       983 MEMB     7        PC       H3C      hX       0.172230       1.00800           0
       984 MEMB     7        PC       C34      cA      -0.338973       12.0100           0
       985 MEMB     7        PC       H4A      hX       0.172230       1.00800           0
       986 MEMB     7        PC       H4B      hX       0.172230       1.00800           0
       987 MEMB     7        PC       H4C      hX       0.172230       1.00800           0
       988 MEMB     7        PC       C35      cA      -0.338973       12.0100           0
       989 MEMB     7        PC       H5A      hX       0.172230       1.00800           0
       990 MEMB     7        PC       H5B      hX       0.172230       1.00800           0
       991 MEMB     7        PC       H5C      hX       0.172230       1.00800           0
       992 MEMB     7        PC       O33      oP      -0.875812       16.0000           0
       993 MEMB     7        PC       O34      oP      -0.875812       16.0000           0
       994 MEMB     7        PC       O21      oS      -0.552948       16.0000           0
       995 MEMB     7        PC       C21      cC       0.897613       12.0100           0
       996 MEMB     7        PC       O22      oC      -0.673755       16.0000           0
       997 MEMB     7        OL       C12      cD      -0.143418       12.0100           0
       998 MEMB     7        OL       H2R      hL       0.428610E-01   1.00800           0
       999 MEMB     7        OL       H2S      hL       0.428610E-01   1.00800           0
      1000 MEMB     7        OL       C13      cD       0.161900E-02   12.0100           0
      1001 MEMB     7        OL       H3R      hL       0.195290E-01   1.00800           0
      1002 MEMB     7        OL       H3S      hL       0.195290E-01   1.00800           0
      1003 MEMB     7        OL       C14      cD      -0.229600E-01   12.0100           0
      1004 MEMB     7        OL       H4R      hL       0.181340E-01   1.00800           0
      1005 MEMB     7        OL       H4S      hL       0.181340E-01   1.00800           0
      1006 MEMB     7        OL       C15      cD      -0.166920E-01   12.0100           0
      1007 MEMB     7        OL       H5R      hL       0.869000E-02   1.00800           0
      1008 MEMB     7        OL       H5S      hL       0.869000E-02   1.00800           0
      1009 MEMB     7        OL       C16      cD      -0.237890E-01   12.0100           0
      1010 MEMB     7        OL       H6R      hL       0.926600E-02   1.00800           0
      1011 MEMB     7        OL       H6S      hL       0.926600E-02   1.00800           0
      1012 MEMB     7        OL       C17      cD      -0.174950E-01   12.0100           0
      1013 MEMB     7        OL       H7R      hL       0.195980E-01   1.00800           0
      1014 MEMB     7        OL       H7S      hL       0.195980E-01   1.00800           0
      1015 MEMB     7        OL       C18      cD       0.317750E-01   12.0100           0
      1016 MEMB     7        OL       H8R      hL       0.326850E-01   1.00800           0
      1017 MEMB     7        OL       H8S      hL       0.326850E-01   1.00800           0
      1018 MEMB     7        OL       C19      cB      -0.244228       12.0100           0
      1019 MEMB     7        OL       H9R      hB       0.131512       1.00800           0
      1020 MEMB     7        OL       C110     cB      -0.239284       12.0100           0
      1021 MEMB     7        OL       H10R     hB       0.126878       1.00800           0
      1022 MEMB     7        OL       C111     cD       0.290590E-01   12.0100           0
      1023 MEMB     7        OL       H11R     hL       0.335310E-01   1.00800           0
      1024 MEMB     7        OL       H11S     hL       0.335310E-01   1.00800           0
      1025 MEMB     7        OL       C112     cD      -0.263530E-01   12.0100           0
      1026 MEMB     7        OL       H12R     hL       0.197170E-01   1.00800           0
      1027 MEMB     7        OL       H12S     hL       0.197170E-01   1.00800           0
      1028 MEMB     7        OL       C113     cD      -0.182570E-01   12.0100           0
      1029 MEMB     7        OL       H13R     hL       0.138000E-01   1.00800           0
      1030 MEMB     7        OL       H13S     hL       0.138000E-01   1.00800           0
      1031 MEMB     7        OL       C114     cD      -0.248490E-01   12.0100           0
      1032 MEMB     7        OL       H14R     hL       0.857200E-02   1.00800           0
      1033 MEMB     7        OL       H14S     hL       0.857200E-02   1.00800           0
      1034 MEMB     7        OL       C115     cD      -0.232470E-01   12.0100           0
      1035 MEMB     7        OL       H15R     hL       0.104030E-01   1.00800           0
      1036 MEMB     7        OL       H15S     hL       0.104030E-01   1.00800           0
      1037 MEMB     7        OL       C116     cD      -0.124880E-01   12.0100           0
      1038 MEMB     7        OL       H16R     hL       0.136590E-01   1.00800           0
      1039 MEMB     7        OL       H16S     hL       0.136590E-01   1.00800           0
      1040 MEMB     7        OL       C117     cD       0.868400E-02   12.0100           0
      1041 MEMB     7        OL       H17R     hL       0.100260E-01   1.00800           0
      1042 MEMB     7        OL       H17S     hL       0.100260E-01   1.00800           0
      1043 MEMB     7        OL       C118     cD      -0.117290       12.0100           0
      1044 MEMB     7        OL       H18R     hL       0.266270E-01   1.00800           0
      1045 MEMB     7        OL       H18S     hL       0.266270E-01   1.00800           0
      1046 MEMB     7        OL       H18T     hL       0.266270E-01   1.00800           0
      1047 MEMB     8        PA       C116     cD      -0.125447       12.0100           0
      1048 MEMB     8        PA       H16R     hL       0.290470E-01   1.00800           0
      1049 MEMB     8        PA       H16S     hL       0.290470E-01   1.00800           0
      1050 MEMB     8        PA       H16T     hL       0.290470E-01   1.00800           0
      1051 MEMB     8        PA       C115     cD       0.139750E-01   12.0100           0
      1052 MEMB     8        PA       H15R     hL       0.929200E-02   1.00800           0
      1053 MEMB     8        PA       H15S     hL       0.929200E-02   1.00800           0
      1054 MEMB     8        PA       C114     cD      -0.200860E-01   12.0100           0
      1055 MEMB     8        PA       H14R     hL       0.159290E-01   1.00800           0
      1056 MEMB     8        PA       H14S     hL       0.159290E-01   1.00800           0
      1057 MEMB     8        PA       C113     cD      -0.330960E-01   12.0100           0
      1058 MEMB     8        PA       H13R     hL       0.146210E-01   1.00800           0
      1059 MEMB     8        PA       H13S     hL       0.146210E-01   1.00800           0
      1060 MEMB     8        PA       C112     cD      -0.276330E-01   12.0100           0
      1061 MEMB     8        PA       H12R     hL       0.113680E-01   1.00800           0
      1062 MEMB     8        PA       H12S     hL       0.113680E-01   1.00800           0
      1063 MEMB     8        PA       C111     cD      -0.252060E-01   12.0100           0
      1064 MEMB     8        PA       H11R     hL       0.143340E-01   1.00800           0
      1065 MEMB     8        PA       H11S     hL       0.143340E-01   1.00800           0
      1066 MEMB     8        PA       C110     cD      -0.288310E-01   12.0100           0
      1067 MEMB     8        PA       H10R     hL       0.146910E-01   1.00800           0
      1068 MEMB     8        PA       H10S     hL       0.146910E-01   1.00800           0
      1069 MEMB     8        PA       C19      cD      -0.304720E-01   12.0100           0
      1070 MEMB     8        PA       H9R      hL       0.138970E-01   1.00800           0
      1071 MEMB     8        PA       H9S      hL       0.138970E-01   1.00800           0
      1072 MEMB     8        PA       C18      cD      -0.157930E-01   12.0100           0
      1073 MEMB     8        PA       H8R      hL       0.906700E-02   1.00800           0
      1074 MEMB     8        PA       H8S      hL       0.906700E-02   1.00800           0
      1075 MEMB     8        PA       C17      cD      -0.196300E-01   12.0100           0
      1076 MEMB     8        PA       H7R      hL       0.110410E-01   1.00800           0
      1077 MEMB     8        PA       H7S      hL       0.110410E-01   1.00800           0
      1078 MEMB     8        PA       C16      cD      -0.244270E-01   12.0100           0
      1079 MEMB     8        PA       H6R      hL       0.133340E-01   1.00800           0
      1080 MEMB     8        PA       H6S      hL       0.133340E-01   1.00800           0
      1081 MEMB     8        PA       C15      cD      -0.293870E-01   12.0100           0
      1082 MEMB     8        PA       H5R      hL       0.167630E-01   1.00800           0
      1083 MEMB     8        PA       H5S      hL       0.167630E-01   1.00800           0
      1084 MEMB     8        PA       C14      cD      -0.300990E-01   12.0100           0
      1085 MEMB     8        PA       H4R      hL       0.208770E-01   1.00800           0
      1086 MEMB     8        PA       H4S      hL       0.208770E-01   1.00800           0
      1087 MEMB     8        PA       C13      cD      -0.488200E-02   12.0100           0
      1088 MEMB     8        PA       H3R      hL       0.190070E-01   1.00800           0
      1089 MEMB     8        PA       H3S      hL       0.190070E-01   1.00800           0
      1090 MEMB     8        PA       C12      cD      -0.149259       12.0100           0
      1091 MEMB     8        PA       H2R      hL       0.473450E-01   1.00800           0
      1092 MEMB     8        PA       H2S      hL       0.473450E-01   1.00800           0
      1093 MEMB     8        PC       C11      cC       0.910403       12.0100           0
      1094 MEMB     8        PC       O12      oC      -0.671566       16.0000           0
      1095 MEMB     8        PC       O11      oS      -0.575489       16.0000           0
      1096 MEMB     8        PC       C1       cA       0.196939       12.0100           0
      1097 MEMB     8        PC       HR       hE       0.704690E-01   1.00800           0
      1098 MEMB     8        PC       HS       hE       0.704690E-01   1.00800           0
      1099 MEMB     8        PC       C2       cA       0.281242       12.0100           0
      1100 MEMB     8        PC       HX       hE       0.632530E-01   1.00800           0
      1101 MEMB     8        PC       C3       cA       0.174590E-01   12.0100           0
      1102 MEMB     8        PC       HA       hE       0.955910E-01   1.00800           0
      1103 MEMB     8        PC       HB       hE       0.955910E-01   1.00800           0
      1104 MEMB     8        PC       O31      oT      -0.509480       16.0000           0
      1105 MEMB     8        PC       P31      pA       1.339721       30.9700           0
      1106 MEMB     8        PC       O32      oT      -0.508176       16.0000           0
      1107 MEMB     8        PC       C31      cA       0.166801       12.0100           0
      1108 MEMB     8        PC       H1A      hE       0.785340E-01   1.00800           0
      1109 MEMB     8        PC       H1B      hE       0.785340E-01   1.00800           0
      1110 MEMB     8        PC       C32      cA      -0.170824       12.0100           0
      1111 MEMB     8        PC       H2A      hX       0.136415       1.00800           0
      1112 MEMB     8        PC       H2B      hX       0.136415       1.00800           0
      1113 MEMB     8        PC       N31      nA       0.245262       14.0100           0
      1114 MEMB     8        PC       C33      cA      -0.338973       12.0100           0
      1115 MEMB     8        PC       H3A      hX       0.172230       1.00800           0
      1116 MEMB     8        PC       H3B      hX       0.172230       1.00800           0
      1117 MEMB     8        PC       H3C      hX       0.172230       1.00800           0
      1118 MEMB     8        PC       C34      cA      -0.338973       12.0100           0
      1119 MEMB     8        PC       H4A      hX       0.172230       1.00800           0
      1120 MEMB     8        PC       H4B      hX       0.172230       1.00800           0
      1121 MEMB     8        PC       H4C      hX       0.172230       1.00800           0
      1122 MEMB     8        PC       C35      cA      -0.338973       12.0100           0
      1123 MEMB     8        PC       H5A      hX       0.172230       1.00800           0
      1124 MEMB     8        PC       H5B      hX       0.172230       1.00800           0
      1125 MEMB     8        PC       H5C      hX       0.172230       1.00800           0
      1126 MEMB     8        PC       O33      oP      -0.875812       16.0000           0
      1127 MEMB     8        PC       O34      oP      -0.875812       16.0000           0
      1128 MEMB     8        PC       O21      oS      -0.552948       16.0000           0
      1129 MEMB     8        PC       C21      cC       0.897613       12.0100           0
      1130 MEMB     8        PC       O22      oC      -0.673755       16.0000           0
      1131 MEMB     8        OL       C12      cD      -0.143418       12.0100           0
      1132 MEMB     8        OL       H2R      hL       0.428610E-01   1.00800           0
      1133 MEMB     8        OL       H2S      hL       0.428610E-01   1.00800           0
      1134 MEMB     8        OL       C13      cD       0.161900E-02   12.0100           0
      1135 MEMB     8        OL       H3R      hL       0.195290E-01   1.00800           0
      1136 MEMB     8        OL       H3S      hL       0.195290E-01   1.00800           0
      1137 MEMB     8        OL       C14      cD      -0.229600E-01   12.0100           0
      1138 MEMB     8        OL       H4R      hL       0.181340E-01   1.00800           0
      1139 MEMB     8        OL       H4S      hL       0.181340E-01   1.00800           0
      1140 MEMB     8        OL       C15      cD      -0.166920E-01   12.0100           0
      1141 MEMB     8        OL       H5R      hL       0.869000E-02   1.00800           0
      1142 MEMB     8        OL       H5S      hL       0.869000E-02   1.00800           0
      1143 MEMB     8        OL       C16      cD      -0.237890E-01   12.0100           0
      1144 MEMB     8        OL       H6R      hL       0.926600E-02   1.00800           0
      1145 MEMB     8        OL       H6S      hL       0.926600E-02   1.00800           0
      1146 MEMB     8        OL       C17      cD      -0.174950E-01   12.0100           0
      1147 MEMB     8        OL       H7R      hL       0.195980E-01   1.00800           0
      1148 MEMB     8        OL       H7S      hL       0.195980E-01   1.00800           0
      1149 MEMB     8        OL       C18      cD       0.317750E-01   12.0100           0
      1150 MEMB     8        OL       H8R      hL       0.326850E-01   1.00800           0
      1151 MEMB     8        OL       H8S      hL       0.326850E-01   1.00800           0
      1152 MEMB     8        OL       C19      cB      -0.244228       12.0100           0
      1153 MEMB     8        OL       H9R      hB       0.131512       1.00800           0
      1154 MEMB     8        OL       C110     cB      -0.239284       12.0100           0
      1155 MEMB     8        OL       H10R     hB       0.126878       1.00800           0
      1156 MEMB     8        OL       C111     cD       0.290590E-01   12.0100           0
      1157 MEMB     8        OL       H11R     hL       0.335310E-01   1.00800           0
      1158 MEMB     8        OL       H11S     hL       0.335310E-01   1.00800           0
      1159 MEMB     8        OL       C112     cD      -0.263530E-01   12.0100           0
      1160 MEMB     8        OL       H12R     hL       0.197170E-01   1.00800           0
      1161 MEMB     8        OL       H12S     hL       0.197170E-01   1.00800           0
      1162 MEMB     8        OL       C113     cD      -0.182570E-01   12.0100           0
      1163 MEMB     8        OL       H13R     hL       0.138000E-01   1.00800           0
      1164 MEMB     8        OL       H13S     hL       0.138000E-01   1.00800           0
      1165 MEMB     8        OL       C114     cD      -0.248490E-01   12.0100           0
      1166 MEMB     8        OL       H14R     hL       0.857200E-02   1.00800           0
      1167 MEMB     8        OL       H14S     hL       0.857200E-02   1.00800           0
      1168 MEMB     8        OL       C115     cD      -0.232470E-01   12.0100           0
      1169 MEMB     8        OL       H15R     hL       0.104030E-01   1.00800           0
      1170 MEMB     8        OL       H15S     hL       0.104030E-01   1.00800           0
      1171 MEMB     8        OL       C116     cD      -0.124880E-01   12.0100           0
      1172 MEMB     8        OL       H16R     hL       0.136590E-01   1.00800           0
      1173 MEMB     8        OL       H16S     hL       0.136590E-01   1.00800           0
      1174 MEMB     8        OL       C117     cD       0.868400E-02   12.0100           0
      1175 MEMB     8        OL       H17R     hL       0.100260E-01   1.00800           0
      1176 MEMB     8        OL       H17S     hL       0.100260E-01   1.00800           0
      1177 MEMB     8        OL       C118     cD      -0.117290       12.0100           0
      1178 MEMB     8        OL       H18R     hL       0.266270E-01   1.00800           0
      1179 MEMB     8        OL       H18S     hL       0.266270E-01   1.00800           0
      1180 MEMB     8        OL       H18T     hL       0.266270E-01   1.00800           0
      1181 MEMB     9        PA       C116     cD      -0.125447       12.0100           0
      1182 MEMB     9        PA       H16R     hL       0.290470E-01   1.00800           0
      1183 MEMB     9        PA       H16S     hL       0.290470E-01   1.00800           0
      1184 MEMB     9        PA       H16T     hL       0.290470E-01   1.00800           0
      1185 MEMB     9        PA       C115     cD       0.139750E-01   12.0100           0
      1186 MEMB     9        PA       H15R     hL       0.929200E-02   1.00800           0
      1187 MEMB     9        PA       H15S     hL       0.929200E-02   1.00800           0
      1188 MEMB     9        PA       C114     cD      -0.200860E-01   12.0100           0
      1189 MEMB     9        PA       H14R     hL       0.159290E-01   1.00800           0
      1190 MEMB     9        PA       H14S     hL       0.159290E-01   1.00800           0
      1191 MEMB     9        PA       C113     cD      -0.330960E-01   12.0100           0
      1192 MEMB     9        PA       H13R     hL       0.146210E-01   1.00800           0
      1193 MEMB     9        PA       H13S     hL       0.146210E-01   1.00800           0
      1194 MEMB     9        PA       C112     cD      -0.276330E-01   12.0100           0
      1195 MEMB     9        PA       H12R     hL       0.113680E-01   1.00800           0
      1196 MEMB     9        PA       H12S     hL       0.113680E-01   1.00800           0
      1197 MEMB     9        PA       C111     cD      -0.252060E-01   12.0100           0
      1198 MEMB     9        PA       H11R     hL       0.143340E-01   1.00800           0
      1199 MEMB     9        PA       H11S     hL       0.143340E-01   1.00800           0
      1200 MEMB     9        PA       C110     cD      -0.288310E-01   12.0100           0
      1201 MEMB     9        PA       H10R     hL       0.146910E-01   1.00800           0
      1202 MEMB     9        PA       H10S     hL       0.146910E-01   1.00800           0
      1203 MEMB     9        PA       C19      cD      -0.304720E-01   12.0100           0
      1204 MEMB     9        PA       H9R      hL       0.138970E-01   1.00800           0
      1205 MEMB     9        PA       H9S      hL       0.138970E-01   1.00800           0
      1206 MEMB     9        PA       C18      cD      -0.157930E-01   12.0100           0
      1207 MEMB     9        PA       H8R      hL       0.906700E-02   1.00800           0
      1208 MEMB     9        PA       H8S      hL       0.906700E-02   1.00800           0
      1209 MEMB     9        PA       C17      cD      -0.196300E-01   12.0100           0
      1210 MEMB     9        PA       H7R      hL       0.110410E-01   1.00800           0
      1211 MEMB     9        PA       H7S      hL       0.110410E-01   1.00800           0
      1212 MEMB     9        PA       C16      cD      -0.244270E-01   12.0100           0
      1213 MEMB     9        PA       H6R      hL       0.133340E-01   1.00800           0
      1214 MEMB     9        PA       H6S      hL       0.133340E-01   1.00800           0
      1215 MEMB     9        PA       C15      cD      -0.293870E-01   12.0100           0
      1216 MEMB     9        PA       H5R      hL       0.167630E-01   1.00800           0
      1217 MEMB     9        PA       H5S      hL       0.167630E-01   1.00800           0
      1218 MEMB     9        PA       C14      cD      -0.300990E-01   12.0100           0
      1219 MEMB     9        PA       H4R      hL       0.208770E-01   1.00800           0
      1220 MEMB     9        PA       H4S      hL       0.208770E-01   1.00800           0
      1221 MEMB     9        PA       C13      cD      -0.488200E-02   12.0100           0
      1222 MEMB     9        PA       H3R      hL       0.190070E-01   1.00800           0
      1223 MEMB     9        PA       H3S      hL       0.190070E-01   1.00800           0
      1224 MEMB     9        PA       C12      cD      -0.149259       12.0100           0
      1225 MEMB     9        PA       H2R      hL       0.473450E-01   1.00800           0
      1226 MEMB     9        PA       H2S      hL       0.473450E-01   1.00800           0
      1227 MEMB     9        PC       C11      cC       0.910403       12.0100           0
      1228 MEMB     9        PC       O12      oC      -0.671566       16.0000           0
      1229 MEMB     9        PC       O11      oS      -0.575489       16.0000           0
      1230 MEMB     9        PC       C1       cA       0.196939       12.0100           0
      1231 MEMB     9        PC       HR       hE       0.704690E-01   1.00800           0
      1232 MEMB     9        PC       HS       hE       0.704690E-01   1.00800           0
      1233 MEMB     9        PC       C2       cA       0.281242       12.0100           0
      1234 MEMB     9        PC       HX       hE       0.632530E-01   1.00800           0
      1235 MEMB     9        PC       C3       cA       0.174590E-01   12.0100           0
      1236 MEMB     9        PC       HA       hE       0.955910E-01   1.00800           0
      1237 MEMB     9        PC       HB       hE       0.955910E-01   1.00800           0
      1238 MEMB     9        PC       O31      oT      -0.509480       16.0000           0
      1239 MEMB     9        PC       P31      pA       1.339721       30.9700           0
      1240 MEMB     9        PC       O32      oT      -0.508176       16.0000           0
      1241 MEMB     9        PC       C31      cA       0.166801       12.0100           0
      1242 MEMB     9        PC       H1A      hE       0.785340E-01   1.00800           0
      1243 MEMB     9        PC       H1B      hE       0.785340E-01   1.00800           0
      1244 MEMB     9        PC       C32      cA      -0.170824       12.0100           0
      1245 MEMB     9        PC       H2A      hX       0.136415       1.00800           0
      1246 MEMB     9        PC       H2B      hX       0.136415       1.00800           0
      1247 MEMB     9        PC       N31      nA       0.245262       14.0100           0
      1248 MEMB     9        PC       C33      cA      -0.338973       12.0100           0
      1249 MEMB     9        PC       H3A      hX       0.172230       1.00800           0
      1250 MEMB     9        PC       H3B      hX       0.172230       1.00800           0
      1251 MEMB     9        PC       H3C      hX       0.172230       1.00800           0
      1252 MEMB     9        PC       C34      cA      -0.338973       12.0100           0
      1253 MEMB     9        PC       H4A      hX       0.172230       1.00800           0
      1254 MEMB     9        PC       H4B      hX       0.172230       1.00800           0
      1255 MEMB     9        PC       H4C      hX       0.172230       1.00800           0
      1256 MEMB     9        PC       C35      cA      -0.338973       12.0100           0
      1257 MEMB     9        PC       H5A      hX       0.172230       1.00800           0
      1258 MEMB     9        PC       H5B      hX       0.172230       1.00800           0
      1259 MEMB     9        PC       H5C      hX       0.172230       1.00800           0
      1260 MEMB     9        PC       O33      oP      -0.875812       16.0000           0
      1261 MEMB     9        PC       O34      oP      -0.875812       16.0000           0
      1262 MEMB     9        PC       O21      oS      -0.552948       16.0000           0
      1263 MEMB     9        PC       C21      cC       0.897613       12.0100           0
      1264 MEMB     9        PC       O22      oC      -0.673755       16.0000           0
      1265 MEMB     9        OL       C12      cD      -0.143418       12.0100           0
      1266 MEMB     9        OL       H2R      hL       0.428610E-01   1.00800           0
      1267 MEMB     9        OL       H2S      hL       0.428610E-01   1.00800           0
      1268 MEMB     9        OL       C13      cD       0.161900E-02   12.0100           0
      1269 MEMB     9        OL       H3R      hL       0.195290E-01   1.00800           0
      1270 MEMB     9        OL       H3S      hL       0.195290E-01   1.00800           0
      1271 MEMB     9        OL       C14      cD      -0.229600E-01   12.0100           0
      1272 MEMB     9        OL       H4R      hL       0.181340E-01   1.00800           0
      1273 MEMB     9        OL       H4S      hL       0.181340E-01   1.00800           0
      1274 MEMB     9        OL       C15      cD      -0.166920E-01   12.0100           0
      1275 MEMB     9        OL       H5R      hL       0.869000E-02   1.00800           0
      1276 MEMB     9        OL       H5S      hL       0.869000E-02   1.00800           0
      1277 MEMB     9        OL       C16      cD      -0.237890E-01   12.0100           0
      1278 MEMB     9        OL       H6R      hL       0.926600E-02   1.00800           0
      1279 MEMB     9        OL       H6S      hL       0.926600E-02   1.00800           0
      1280 MEMB     9        OL       C17      cD      -0.174950E-01   12.0100           0
      1281 MEMB     9        OL       H7R      hL       0.195980E-01   1.00800           0
      1282 MEMB     9        OL       H7S      hL       0.195980E-01   1.00800           0
      1283 MEMB     9        OL       C18      cD       0.317750E-01   12.0100           0
      1284 MEMB     9        OL       H8R      hL       0.326850E-01   1.00800           0
      1285 MEMB     9        OL       H8S      hL       0.326850E-01   1.00800           0
      1286 MEMB     9        OL       C19      cB      -0.244228       12.0100           0
      1287 MEMB     9        OL       H9R      hB       0.131512       1.00800           0
      1288 MEMB     9        OL       C110     cB      -0.239284       12.0100           0
      1289 MEMB     9        OL       H10R     hB       0.126878       1.00800           0
      1290 MEMB     9        OL       C111     cD       0.290590E-01   12.0100           0
      1291 MEMB     9        OL       H11R     hL       0.335310E-01   1.00800           0
      1292 MEMB     9        OL       H11S     hL       0.335310E-01   1.00800           0
      1293 MEMB     9        OL       C112     cD      -0.263530E-01   12.0100           0
      1294 MEMB     9        OL       H12R     hL       0.197170E-01   1.00800           0
      1295 MEMB     9        OL       H12S     hL       0.197170E-01   1.00800           0
      1296 MEMB     9        OL       C113     cD      -0.182570E-01   12.0100           0
      1297 MEMB     9        OL       H13R     hL       0.138000E-01   1.00800           0
      1298 MEMB     9        OL       H13S     hL       0.138000E-01   1.00800           0
      1299 MEMB     9        OL       C114     cD      -0.248490E-01   12.0100           0
      1300 MEMB     9        OL       H14R     hL       0.857200E-02   1.00800           0
      1301 MEMB     9        OL       H14S     hL       0.857200E-02   1.00800           0
      1302 MEMB     9        OL       C115     cD      -0.232470E-01   12.0100           0
      1303 MEMB     9        OL       H15R     hL       0.104030E-01   1.00800           0
      1304 MEMB     9        OL       H15S     hL       0.104030E-01   1.00800           0
      1305 MEMB     9        OL       C116     cD      -0.124880E-01   12.0100           0
      1306 MEMB     9        OL       H16R     hL       0.136590E-01   1.00800           0
      1307 MEMB     9        OL       H16S     hL       0.136590E-01   1.00800           0
      1308 MEMB     9        OL       C117     cD       0.868400E-02   12.0100           0
      1309 MEMB     9        OL       H17R     hL       0.100260E-01   1.00800           0
      1310 MEMB     9        OL       H17S     hL       0.100260E-01   1.00800           0
      1311 MEMB     9        OL       C118     cD      -0.117290       12.0100           0
      1312 MEMB     9        OL       H18R     hL       0.266270E-01   1.00800           0
      1313 MEMB     9        OL       H18S     hL       0.266270E-01   1.00800           0
      1314 MEMB     9        OL       H18T     hL       0.266270E-01   1.00800           0
      1315 MEMB     10       PA       C116     cD      -0.125447       12.0100           0
      1316 MEMB     10       PA       H16R     hL       0.290470E-01   1.00800           0
      1317 MEMB     10       PA       H16S     hL       0.290470E-01   1.00800           0
      1318 MEMB     10       PA       H16T     hL       0.290470E-01   1.00800           0
      1319 MEMB     10       PA       C115     cD       0.139750E-01   12.0100           0
      1320 MEMB     10       PA       H15R     hL       0.929200E-02   1.00800           0
      1321 MEMB     10       PA       H15S     hL       0.929200E-02   1.00800           0
      1322 MEMB     10       PA       C114     cD      -0.200860E-01   12.0100           0
      1323 MEMB     10       PA       H14R     hL       0.159290E-01   1.00800           0
      1324 MEMB     10       PA       H14S     hL       0.159290E-01   1.00800           0
      1325 MEMB     10       PA       C113     cD      -0.330960E-01   12.0100           0
      1326 MEMB     10       PA       H13R     hL       0.146210E-01   1.00800           0
      1327 MEMB     10       PA       H13S     hL       0.146210E-01   1.00800           0
      1328 MEMB     10       PA       C112     cD      -0.276330E-01   12.0100           0
      1329 MEMB     10       PA       H12R     hL       0.113680E-01   1.00800           0
      1330 MEMB     10       PA       H12S     hL       0.113680E-01   1.00800           0
      1331 MEMB     10       PA       C111     cD      -0.252060E-01   12.0100           0
      1332 MEMB     10       PA       H11R     hL       0.143340E-01   1.00800           0
      1333 MEMB     10       PA       H11S     hL       0.143340E-01   1.00800           0
      1334 MEMB     10       PA       C110     cD      -0.288310E-01   12.0100           0
      1335 MEMB     10       PA       H10R     hL       0.146910E-01   1.00800           0
      1336 MEMB     10       PA       H10S     hL       0.146910E-01   1.00800           0
      1337 MEMB     10       PA       C19      cD      -0.304720E-01   12.0100           0
      1338 MEMB     10       PA       H9R      hL       0.138970E-01   1.00800           0
      1339 MEMB     10       PA       H9S      hL       0.138970E-01   1.00800           0
      1340 MEMB     10       PA       C18      cD      -0.157930E-01   12.0100           0
      1341 MEMB     10       PA       H8R      hL       0.906700E-02   1.00800           0
      1342 MEMB     10       PA       H8S      hL       0.906700E-02   1.00800           0
      1343 MEMB     10       PA       C17      cD      -0.196300E-01   12.0100           0
      1344 MEMB     10       PA       H7R      hL       0.110410E-01   1.00800           0
      1345 MEMB     10       PA       H7S      hL       0.110410E-01   1.00800           0
      1346 MEMB     10       PA       C16      cD      -0.244270E-01   12.0100           0
      1347 MEMB     10       PA       H6R      hL       0.133340E-01   1.00800           0
      1348 MEMB     10       PA       H6S      hL       0.133340E-01   1.00800           0
      1349 MEMB     10       PA       C15      cD      -0.293870E-01   12.0100           0
      1350 MEMB     10       PA       H5R      hL       0.167630E-01   1.00800           0
      1351 MEMB     10       PA       H5S      hL       0.167630E-01   1.00800           0
      1352 MEMB     10       PA       C14      cD      -0.300990E-01   12.0100           0
      1353 MEMB     10       PA       H4R      hL       0.208770E-01   1.00800           0
      1354 MEMB     10       PA       H4S      hL       0.208770E-01   1.00800           0
      1355 MEMB     10       PA       C13      cD      -0.488200E-02   12.0100           0
      1356 MEMB     10       PA       H3R      hL       0.190070E-01   1.00800           0
      1357 MEMB     10       PA       H3S      hL       0.190070E-01   1.00800           0
      1358 MEMB     10       PA       C12      cD      -0.149259       12.0100           0
      1359 MEMB     10       PA       H2R      hL       0.473450E-01   1.00800           0
      1360 MEMB     10       PA       H2S      hL       0.473450E-01   1.00800           0
      1361 MEMB     10       PC       C11      cC       0.910403       12.0100           0
      1362 MEMB     10       PC       O12      oC      -0.671566       16.0000           0
      1363 MEMB     10       PC       O11      oS      -0.575489       16.0000           0
      1364 MEMB     10       PC       C1       cA       0.196939       12.0100           0
      1365 MEMB     10       PC       HR       hE       0.704690E-01   1.00800           0
      1366 MEMB     10       PC       HS       hE       0.704690E-01   1.00800           0
      1367 MEMB     10       PC       C2       cA       0.281242       12.0100           0
      1368 MEMB     10       PC       HX       hE       0.632530E-01   1.00800           0
      1369 MEMB     10       PC       C3       cA       0.174590E-01   12.0100           0
      1370 MEMB     10       PC       HA       hE       0.955910E-01   1.00800           0
      1371 MEMB     10       PC       HB       hE       0.955910E-01   1.00800           0
      1372 MEMB     10       PC       O31      oT      -0.509480       16.0000           0
      1373 MEMB     10       PC       P31      pA       1.339721       30.9700           0
      1374 MEMB     10       PC       O32      oT      -0.508176       16.0000           0
      1375 MEMB     10       PC       C31      cA       0.166801       12.0100           0
      1376 MEMB     10       PC       H1A      hE       0.785340E-01   1.00800           0
      1377 MEMB     10       PC       H1B      hE       0.785340E-01   1.00800           0
      1378 MEMB     10       PC       C32      cA      -0.170824       12.0100           0
      1379 MEMB     10       PC       H2A      hX       0.136415       1.00800           0
      1380 MEMB     10       PC       H2B      hX       0.136415       1.00800           0
      1381 MEMB     10       PC       N31      nA       0.245262       14.0100           0
      1382 MEMB     10       PC       C33      cA      -0.338973       12.0100           0
      1383 MEMB     10       PC       H3A      hX       0.172230       1.00800           0
      1384 MEMB     10       PC       H3B      hX       0.172230       1.00800           0
      1385 MEMB     10       PC       H3C      hX       0.172230       1.00800           0
      1386 MEMB     10       PC       C34      cA      -0.338973       12.0100           0
      1387 MEMB     10       PC       H4A      hX       0.172230       1.00800           0
      1388 MEMB     10       PC       H4B      hX       0.172230       1.00800           0
      1389 MEMB     10       PC       H4C      hX       0.172230       1.00800           0
      1390 MEMB     10       PC       C35      cA      -0.338973       12.0100           0
      1391 MEMB     10       PC       H5A      hX       0.172230       1.00800           0
      1392 MEMB     10       PC       H5B      hX       0.172230       1.00800           0
      1393 MEMB     10       PC       H5C      hX       0.172230       1.00800           0
      1394 MEMB     10       PC       O33      oP      -0.875812       16.0000           0
      1395 MEMB     10       PC       O34      oP      -0.875812       16.0000           0
      1396 MEMB     10       PC       O21      oS      -0.552948       16.0000           0
      1397 MEMB     10       PC       C21      cC       0.897613       12.0100           0
      1398 MEMB     10       PC       O22      oC      -0.673755       16.0000           0
      1399 MEMB     10       OL       C12      cD      -0.143418       12.0100           0
      1400 MEMB     10       OL       H2R      hL       0.428610E-01   1.00800           0
      1401 MEMB     10       OL       H2S      hL       0.428610E-01   1.00800           0
      1402 MEMB     10       OL       C13      cD       0.161900E-02   12.0100           0
      1403 MEMB     10       OL       H3R      hL       0.195290E-01   1.00800           0
      1404 MEMB     10       OL       H3S      hL       0.195290E-01   1.00800           0
      1405 MEMB     10       OL       C14      cD      -0.229600E-01   12.0100           0
      1406 MEMB     10       OL       H4R      hL       0.181340E-01   1.00800           0
      1407 MEMB     10       OL       H4S      hL       0.181340E-01   1.00800           0
      1408 MEMB     10       OL       C15      cD      -0.166920E-01   12.0100           0
      1409 MEMB     10       OL       H5R      hL       0.869000E-02   1.00800           0
      1410 MEMB     10       OL       H5S      hL       0.869000E-02   1.00800           0
      1411 MEMB     10       OL       C16      cD      -0.237890E-01   12.0100           0
      1412 MEMB     10       OL       H6R      hL       0.926600E-02   1.00800           0
      1413 MEMB     10       OL       H6S      hL       0.926600E-02   1.00800           0
      1414 MEMB     10       OL       C17      cD      -0.174950E-01   12.0100           0
      1415 MEMB     10       OL       H7R      hL       0.195980E-01   1.00800           0
      1416 MEMB     10       OL       H7S      hL       0.195980E-01   1.00800           0
      1417 MEMB     10       OL       C18      cD       0.317750E-01   12.0100           0
      1418 MEMB     10       OL       H8R      hL       0.326850E-01   1.00800           0
      1419 MEMB     10       OL       H8S      hL       0.326850E-01   1.00800           0
      1420 MEMB     10       OL       C19      cB      -0.244228       12.0100           0
      1421 MEMB     10       OL       H9R      hB       0.131512       1.00800           0
      1422 MEMB     10       OL       C110     cB      -0.239284       12.0100           0
      1423 MEMB     10       OL       H10R     hB       0.126878       1.00800           0
      1424 MEMB     10       OL       C111     cD       0.290590E-01   12.0100           0
      1425 MEMB     10       OL       H11R     hL       0.335310E-01   1.00800           0
      1426 MEMB     10       OL       H11S     hL       0.335310E-01   1.00800           0
      1427 MEMB     10       OL       C112     cD      -0.263530E-01   12.0100           0
      1428 MEMB     10       OL       H12R     hL       0.197170E-01   1.00800           0
      1429 MEMB     10       OL       H12S     hL       0.197170E-01   1.00800           0
      1430 MEMB     10       OL       C113     cD      -0.182570E-01   12.0100           0
      1431 MEMB     10       OL       H13R     hL       0.138000E-01   1.00800           0
      1432 MEMB     10       OL       H13S     hL       0.138000E-01   1.00800           0
      1433 MEMB     10       OL       C114     cD      -0.248490E-01   12.0100           0
      1434 MEMB     10       OL       H14R     hL       0.857200E-02   1.00800           0
      1435 MEMB     10       OL       H14S     hL       0.857200E-02   1.00800           0
      1436 MEMB     10       OL       C115     cD      -0.232470E-01   12.0100           0
      1437 MEMB     10       OL       H15R     hL       0.104030E-01   1.00800           0
      1438 MEMB     10       OL       H15S     hL       0.104030E-01   1.00800           0
      1439 MEMB     10       OL       C116     cD      -0.124880E-01   12.0100           0
      1440 MEMB     10       OL       H16R     hL       0.136590E-01   1.00800           0
      1441 MEMB     10       OL       H16S     hL       0.136590E-01   1.00800           0
      1442 MEMB     10       OL       C117     cD       0.868400E-02   12.0100           0
      1443 MEMB     10       OL       H17R     hL       0.100260E-01   1.00800           0
      1444 MEMB     10       OL       H17S     hL       0.100260E-01   1.00800           0
      1445 MEMB     10       OL       C118     cD      -0.117290       12.0100           0
      1446 MEMB     10       OL       H18R     hL       0.266270E-01   1.00800           0
      1447 MEMB     10       OL       H18S     hL       0.266270E-01   1.00800           0
      1448 MEMB     10       OL       H18T     hL       0.266270E-01   1.00800           0
      1449 MEMB     11       PA       C116     cD      -0.125447       12.0100           0
      1450 MEMB     11       PA       H16R     hL       0.290470E-01   1.00800           0
      1451 MEMB     11       PA       H16S     hL       0.290470E-01   1.00800           0
      1452 MEMB     11       PA       H16T     hL       0.290470E-01   1.00800           0
      1453 MEMB     11       PA       C115     cD       0.139750E-01   12.0100           0
      1454 MEMB     11       PA       H15R     hL       0.929200E-02   1.00800           0
      1455 MEMB     11       PA       H15S     hL       0.929200E-02   1.00800           0
      1456 MEMB     11       PA       C114     cD      -0.200860E-01   12.0100           0
      1457 MEMB     11       PA       H14R     hL       0.159290E-01   1.00800           0
      1458 MEMB     11       PA       H14S     hL       0.159290E-01   1.00800           0
      1459 MEMB     11       PA       C113     cD      -0.330960E-01   12.0100           0
      1460 MEMB     11       PA       H13R     hL       0.146210E-01   1.00800           0
      1461 MEMB     11       PA       H13S     hL       0.146210E-01   1.00800           0
      1462 MEMB     11       PA       C112     cD      -0.276330E-01   12.0100           0
      1463 MEMB     11       PA       H12R     hL       0.113680E-01   1.00800           0
      1464 MEMB     11       PA       H12S     hL       0.113680E-01   1.00800           0
      1465 MEMB     11       PA       C111     cD      -0.252060E-01   12.0100           0
      1466 MEMB     11       PA       H11R     hL       0.143340E-01   1.00800           0
      1467 MEMB     11       PA       H11S     hL       0.143340E-01   1.00800           0
      1468 MEMB     11       PA       C110     cD      -0.288310E-01   12.0100           0
      1469 MEMB     11       PA       H10R     hL       0.146910E-01   1.00800           0
      1470 MEMB     11       PA       H10S     hL       0.146910E-01   1.00800           0
      1471 MEMB     11       PA       C19      cD      -0.304720E-01   12.0100           0
      1472 MEMB     11       PA       H9R      hL       0.138970E-01   1.00800           0
      1473 MEMB     11       PA       H9S      hL       0.138970E-01   1.00800           0
      1474 MEMB     11       PA       C18      cD      -0.157930E-01   12.0100           0
      1475 MEMB     11       PA       H8R      hL       0.906700E-02   1.00800           0
      1476 MEMB     11       PA       H8S      hL       0.906700E-02   1.00800           0
      1477 MEMB     11       PA       C17      cD      -0.196300E-01   12.0100           0
      1478 MEMB     11       PA       H7R      hL       0.110410E-01   1.00800           0
      1479 MEMB     11       PA       H7S      hL       0.110410E-01   1.00800           0
      1480 MEMB     11       PA       C16      cD      -0.244270E-01   12.0100           0
      1481 MEMB     11       PA       H6R      hL       0.133340E-01   1.00800           0
      1482 MEMB     11       PA       H6S      hL       0.133340E-01   1.00800           0
      1483 MEMB     11       PA       C15      cD      -0.293870E-01   12.0100           0
      1484 MEMB     11       PA       H5R      hL       0.167630E-01   1.00800           0
      1485 MEMB     11       PA       H5S      hL       0.167630E-01   1.00800           0
      1486 MEMB     11       PA       C14      cD      -0.300990E-01   12.0100           0
      1487 MEMB     11       PA       H4R      hL       0.208770E-01   1.00800           0
      1488 MEMB     11       PA       H4S      hL       0.208770E-01   1.00800           0
      1489 MEMB     11       PA       C13      cD      -0.488200E-02   12.0100           0
      1490 MEMB     11       PA       H3R      hL       0.190070E-01   1.00800           0
      1491 MEMB     11       PA       H3S      hL       0.190070E-01   1.00800           0
      1492 MEMB     11       PA       C12      cD      -0.149259       12.0100           0
      1493 MEMB     11       PA       H2R      hL       0.473450E-01   1.00800           0
      1494 MEMB     11       PA       H2S      hL       0.473450E-01   1.00800           0
      1495 MEMB     11       PC       C11      cC       0.910403       12.0100           0
      1496 MEMB     11       PC       O12      oC      -0.671566       16.0000           0
      1497 MEMB     11       PC       O11      oS      -0.575489       16.0000           0
      1498 MEMB     11       PC       C1       cA       0.196939       12.0100           0
      1499 MEMB     11       PC       HR       hE       0.704690E-01   1.00800           0
      1500 MEMB     11       PC       HS       hE       0.704690E-01   1.00800           0
      1501 MEMB     11       PC       C2       cA       0.281242       12.0100           0
      1502 MEMB     11       PC       HX       hE       0.632530E-01   1.00800           0
      1503 MEMB     11       PC       C3       cA       0.174590E-01   12.0100           0
      1504 MEMB     11       PC       HA       hE       0.955910E-01   1.00800           0
      1505 MEMB     11       PC       HB       hE       0.955910E-01   1.00800           0
      1506 MEMB     11       PC       O31      oT      -0.509480       16.0000           0
      1507 MEMB     11       PC       P31      pA       1.339721       30.9700           0
      1508 MEMB     11       PC       O32      oT      -0.508176       16.0000           0
      1509 MEMB     11       PC       C31      cA       0.166801       12.0100           0
      1510 MEMB     11       PC       H1A      hE       0.785340E-01   1.00800           0
      1511 MEMB     11       PC       H1B      hE       0.785340E-01   1.00800           0
      1512 MEMB     11       PC       C32      cA      -0.170824       12.0100           0
      1513 MEMB     11       PC       H2A      hX       0.136415       1.00800           0
      1514 MEMB     11       PC       H2B      hX       0.136415       1.00800           0
      1515 MEMB     11       PC       N31      nA       0.245262       14.0100           0
      1516 MEMB     11       PC       C33      cA      -0.338973       12.0100           0
      1517 MEMB     11       PC       H3A      hX       0.172230       1.00800           0
      1518 MEMB     11       PC       H3B      hX       0.172230       1.00800           0
      1519 MEMB     11       PC       H3C      hX       0.172230       1.00800           0
      1520 MEMB     11       PC       C34      cA      -0.338973       12.0100           0
      1521 MEMB     11       PC       H4A      hX       0.172230       1.00800           0
      1522 MEMB     11       PC       H4B      hX       0.172230       1.00800           0
      1523 MEMB     11       PC       H4C      hX       0.172230       1.00800           0
      1524 MEMB     11       PC       C35      cA      -0.338973       12.0100           0
      1525 MEMB     11       PC       H5A      hX       0.172230       1.00800           0
      1526 MEMB     11       PC       H5B      hX       0.172230       1.00800           0
      1527 MEMB     11       PC       H5C      hX       0.172230       1.00800           0
      1528 MEMB     11       PC       O33      oP      -0.875812       16.0000           0
      1529 MEMB     11       PC       O34      oP      -0.875812       16.0000           0
      1530 MEMB     11       PC       O21      oS      -0.552948       16.0000           0
      1531 MEMB     11       PC       C21      cC       0.897613       12.0100           0
      1532 MEMB     11       PC       O22      oC      -0.673755       16.0000           0
      1533 MEMB     11       OL       C12      cD      -0.143418       12.0100           0
      1534 MEMB     11       OL       H2R      hL       0.428610E-01   1.00800           0
      1535 MEMB     11       OL       H2S      hL       0.428610E-01   1.00800           0
      1536 MEMB     11       OL       C13      cD       0.161900E-02   12.0100           0
      1537 MEMB     11       OL       H3R      hL       0.195290E-01   1.00800           0
      1538 MEMB     11       OL       H3S      hL       0.195290E-01   1.00800           0
      1539 MEMB     11       OL       C14      cD      -0.229600E-01   12.0100           0
      1540 MEMB     11       OL       H4R      hL       0.181340E-01   1.00800           0
      1541 MEMB     11       OL       H4S      hL       0.181340E-01   1.00800           0
      1542 MEMB     11       OL       C15      cD      -0.166920E-01   12.0100           0
      1543 MEMB     11       OL       H5R      hL       0.869000E-02   1.00800           0
      1544 MEMB     11       OL       H5S      hL       0.869000E-02   1.00800           0
      1545 MEMB     11       OL       C16      cD      -0.237890E-01   12.0100           0
      1546 MEMB     11       OL       H6R      hL       0.926600E-02   1.00800           0
      1547 MEMB     11       OL       H6S      hL       0.926600E-02   1.00800           0
      1548 MEMB     11       OL       C17      cD      -0.174950E-01   12.0100           0
      1549 MEMB     11       OL       H7R      hL       0.195980E-01   1.00800           0
      1550 MEMB     11       OL       H7S      hL       0.195980E-01   1.00800           0
      1551 MEMB     11       OL       C18      cD       0.317750E-01   12.0100           0
      1552 MEMB     11       OL       H8R      hL       0.326850E-01   1.00800           0
      1553 MEMB     11       OL       H8S      hL       0.326850E-01   1.00800           0
      1554 MEMB     11       OL       C19      cB      -0.244228       12.0100           0
      1555 MEMB     11       OL       H9R      hB       0.131512       1.00800           0
      1556 MEMB     11       OL       C110     cB      -0.239284       12.0100           0
      1557 MEMB     11       OL       H10R     hB       0.126878       1.00800           0
      1558 MEMB     11       OL       C111     cD       0.290590E-01   12.0100           0
      1559 MEMB     11       OL       H11R     hL       0.335310E-01   1.00800           0
      1560 MEMB     11       OL       H11S     hL       0.335310E-01   1.00800           0
      1561 MEMB     11       OL       C112     cD      -0.263530E-01   12.0100           0
      1562 MEMB     11       OL       H12R     hL       0.197170E-01   1.00800           0
      1563 MEMB     11       OL       H12S     hL       0.197170E-01   1.00800           0
      1564 MEMB     11       OL       C113     cD      -0.182570E-01   12.0100           0
      1565 MEMB     11       OL       H13R     hL       0.138000E-01   1.00800           0
      1566 MEMB     11       OL       H13S     hL       0.138000E-01   1.00800           0
      1567 MEMB     11       OL       C114     cD      -0.248490E-01   12.0100           0
      1568 MEMB     11       OL       H14R     hL       0.857200E-02   1.00800           0
      1569 MEMB     11       OL       H14S     hL       0.857200E-02   1.00800           0
      1570 MEMB     11       OL       C115     cD      -0.232470E-01   12.0100           0
      1571 MEMB     11       OL       H15R     hL       0.104030E-01   1.00800           0
      1572 MEMB     11       OL       H15S     hL       0.104030E-01   1.00800           0
      1573 MEMB     11       OL       C116     cD      -0.124880E-01   12.0100           0
      1574 MEMB     11       OL       H16R     hL       0.136590E-01   1.00800           0
      1575 MEMB     11       OL       H16S     hL       0.136590E-01   1.00800           0
      1576 MEMB     11       OL       C117     cD       0.868400E-02   12.0100           0
      1577 MEMB     11       OL       H17R     hL       0.100260E-01   1.00800           0
      1578 MEMB     11       OL       H17S     hL       0.100260E-01   1.00800           0
      1579 MEMB     11       OL       C118     cD      -0.117290       12.0100           0
      1580 MEMB     11       OL       H18R     hL       0.266270E-01   1.00800           0
      1581 MEMB     11       OL       H18S     hL       0.266270E-01   1.00800           0
      1582 MEMB     11       OL       H18T     hL       0.266270E-01   1.00800           0
      1583 MEMB     12       PA       C116     cD      -0.125447       12.0100           0
      1584 MEMB     12       PA       H16R     hL       0.290470E-01   1.00800           0
      1585 MEMB     12       PA       H16S     hL       0.290470E-01   1.00800           0
      1586 MEMB     12       PA       H16T     hL       0.290470E-01   1.00800           0
      1587 MEMB     12       PA       C115     cD       0.139750E-01   12.0100           0
      1588 MEMB     12       PA       H15R     hL       0.929200E-02   1.00800           0
      1589 MEMB     12       PA       H15S     hL       0.929200E-02   1.00800           0
      1590 MEMB     12       PA       C114     cD      -0.200860E-01   12.0100           0
      1591 MEMB     12       PA       H14R     hL       0.159290E-01   1.00800           0
      1592 MEMB     12       PA       H14S     hL       0.159290E-01   1.00800           0
      1593 MEMB     12       PA       C113     cD      -0.330960E-01   12.0100           0
      1594 MEMB     12       PA       H13R     hL       0.146210E-01   1.00800           0
      1595 MEMB     12       PA       H13S     hL       0.146210E-01   1.00800           0
      1596 MEMB     12       PA       C112     cD      -0.276330E-01   12.0100           0
      1597 MEMB     12       PA       H12R     hL       0.113680E-01   1.00800           0
      1598 MEMB     12       PA       H12S     hL       0.113680E-01   1.00800           0
      1599 MEMB     12       PA       C111     cD      -0.252060E-01   12.0100           0
      1600 MEMB     12       PA       H11R     hL       0.143340E-01   1.00800           0
      1601 MEMB     12       PA       H11S     hL       0.143340E-01   1.00800           0
      1602 MEMB     12       PA       C110     cD      -0.288310E-01   12.0100           0
      1603 MEMB     12       PA       H10R     hL       0.146910E-01   1.00800           0
      1604 MEMB     12       PA       H10S     hL       0.146910E-01   1.00800           0
      1605 MEMB     12       PA       C19      cD      -0.304720E-01   12.0100           0
      1606 MEMB     12       PA       H9R      hL       0.138970E-01   1.00800           0
      1607 MEMB     12       PA       H9S      hL       0.138970E-01   1.00800           0
      1608 MEMB     12       PA       C18      cD      -0.157930E-01   12.0100           0
      1609 MEMB     12       PA       H8R      hL       0.906700E-02   1.00800           0
      1610 MEMB     12       PA       H8S      hL       0.906700E-02   1.00800           0
      1611 MEMB     12       PA       C17      cD      -0.196300E-01   12.0100           0
      1612 MEMB     12       PA       H7R      hL       0.110410E-01   1.00800           0
      1613 MEMB     12       PA       H7S      hL       0.110410E-01   1.00800           0
      1614 MEMB     12       PA       C16      cD      -0.244270E-01   12.0100           0
      1615 MEMB     12       PA       H6R      hL       0.133340E-01   1.00800           0
      1616 MEMB     12       PA       H6S      hL       0.133340E-01   1.00800           0
      1617 MEMB     12       PA       C15      cD      -0.293870E-01   12.0100           0
      1618 MEMB     12       PA       H5R      hL       0.167630E-01   1.00800           0
      1619 MEMB     12       PA       H5S      hL       0.167630E-01   1.00800           0
      1620 MEMB     12       PA       C14      cD      -0.300990E-01   12.0100           0
      1621 MEMB     12       PA       H4R      hL       0.208770E-01   1.00800           0
      1622 MEMB     12       PA       H4S      hL       0.208770E-01   1.00800           0
      1623 MEMB     12       PA       C13      cD      -0.488200E-02   12.0100           0
      1624 MEMB     12       PA       H3R      hL       0.190070E-01   1.00800           0
      1625 MEMB     12       PA       H3S      hL       0.190070E-01   1.00800           0
      1626 MEMB     12       PA       C12      cD      -0.149259       12.0100           0
      1627 MEMB     12       PA       H2R      hL       0.473450E-01   1.00800           0
      1628 MEMB     12       PA       H2S      hL       0.473450E-01   1.00800           0
      1629 MEMB     12       PC       C11      cC       0.910403       12.0100           0
      1630 MEMB     12       PC       O12      oC      -0.671566       16.0000           0
      1631 MEMB     12       PC       O11      oS      -0.575489       16.0000           0
      1632 MEMB     12       PC       C1       cA       0.196939       12.0100           0
      1633 MEMB     12       PC       HR       hE       0.704690E-01   1.00800           0
      1634 MEMB     12       PC       HS       hE       0.704690E-01   1.00800           0
      1635 MEMB     12       PC       C2       cA       0.281242       12.0100           0
      1636 MEMB     12       PC       HX       hE       0.632530E-01   1.00800           0
      1637 MEMB     12       PC       C3       cA       0.174590E-01   12.0100           0
      1638 MEMB     12       PC       HA       hE       0.955910E-01   1.00800           0
      1639 MEMB     12       PC       HB       hE       0.955910E-01   1.00800           0
      1640 MEMB     12       PC       O31      oT      -0.509480       16.0000           0
      1641 MEMB     12       PC       P31      pA       1.339721       30.9700           0
      1642 MEMB     12       PC       O32      oT      -0.508176       16.0000           0
      1643 MEMB     12       PC       C31      cA       0.166801       12.0100           0
      1644 MEMB     12       PC       H1A      hE       0.785340E-01   1.00800           0
      1645 MEMB     12       PC       H1B      hE       0.785340E-01   1.00800           0
      1646 MEMB     12       PC       C32      cA      -0.170824       12.0100           0
      1647 MEMB     12       PC       H2A      hX       0.136415       1.00800           0
      1648 MEMB     12       PC       H2B      hX       0.136415       1.00800           0
      1649 MEMB     12       PC       N31      nA       0.245262       14.0100           0
      1650 MEMB     12       PC       C33      cA      -0.338973       12.0100           0
      1651 MEMB     12       PC       H3A      hX       0.172230       1.00800           0
      1652 MEMB     12       PC       H3B      hX       0.172230       1.00800           0
      1653 MEMB     12       PC       H3C      hX       0.172230       1.00800           0
      1654 MEMB     12       PC       C34      cA      -0.338973       12.0100           0
      1655 MEMB     12       PC       H4A      hX       0.172230       1.00800           0
      1656 MEMB     12       PC       H4B      hX       0.172230       1.00800           0
      1657 MEMB     12       PC       H4C      hX       0.172230       1.00800           0
      1658 MEMB     12       PC       C35      cA      -0.338973       12.0100           0
      1659 MEMB     12       PC       H5A      hX       0.172230       1.00800           0
      1660 MEMB     12       PC       H5B      hX       0.172230       1.00800           0
      1661 MEMB     12       PC       H5C      hX       0.172230       1.00800           0
      1662 MEMB     12       PC       O33      oP      -0.875812       16.0000           0
      1663 MEMB     12       PC       O34      oP      -0.875812       16.0000           0
      1664 MEMB     12       PC       O21      oS      -0.552948       16.0000           0
      1665 MEMB     12       PC       C21      cC       0.897613       12.0100           0
      1666 MEMB     12       PC       O22      oC      -0.673755       16.0000           0
      1667 MEMB     12       OL       C12      cD      -0.143418       12.0100           0
      1668 MEMB     12       OL       H2R      hL       0.428610E-01   1.00800           0
      1669 MEMB     12       OL       H2S      hL       0.428610E-01   1.00800           0
      1670 MEMB     12       OL       C13      cD       0.161900E-02   12.0100           0
      1671 MEMB     12       OL       H3R      hL       0.195290E-01   1.00800           0
      1672 MEMB     12       OL       H3S      hL       0.195290E-01   1.00800           0
      1673 MEMB     12       OL       C14      cD      -0.229600E-01   12.0100           0
      1674 MEMB     12       OL       H4R      hL       0.181340E-01   1.00800           0
      1675 MEMB     12       OL       H4S      hL       0.181340E-01   1.00800           0
      1676 MEMB     12       OL       C15      cD      -0.166920E-01   12.0100           0
      1677 MEMB     12       OL       H5R      hL       0.869000E-02   1.00800           0
      1678 MEMB     12       OL       H5S      hL       0.869000E-02   1.00800           0
      1679 MEMB     12       OL       C16      cD      -0.237890E-01   12.0100           0
      1680 MEMB     12       OL       H6R      hL       0.926600E-02   1.00800           0
      1681 MEMB     12       OL       H6S      hL       0.926600E-02   1.00800           0
      1682 MEMB     12       OL       C17      cD      -0.174950E-01   12.0100           0
      1683 MEMB     12       OL       H7R      hL       0.195980E-01   1.00800           0
      1684 MEMB     12       OL       H7S      hL       0.195980E-01   1.00800           0
      1685 MEMB     12       OL       C18      cD       0.317750E-01   12.0100           0
      1686 MEMB     12       OL       H8R      hL       0.326850E-01   1.00800           0
      1687 MEMB     12       OL       H8S      hL       0.326850E-01   1.00800           0
      1688 MEMB     12       OL       C19      cB      -0.244228       12.0100           0
      1689 MEMB     12       OL       H9R      hB       0.131512       1.00800           0
      1690 MEMB     12       OL       C110     cB      -0.239284       12.0100           0
      1691 MEMB     12       OL       H10R     hB       0.126878       1.00800           0
      1692 MEMB     12       OL       C111     cD       0.290590E-01   12.0100           0
      1693 MEMB     12       OL       H11R     hL       0.335310E-01   1.00800           0
      1694 MEMB     12       OL       H11S     hL       0.335310E-01   1.00800           0
      1695 MEMB     12       OL       C112     cD      -0.263530E-01   12.0100           0
      1696 MEMB     12       OL       H12R     hL       0.197170E-01   1.00800           0
      1697 MEMB     12       OL       H12S     hL       0.197170E-01   1.00800           0
      1698 MEMB     12       OL       C113     cD      -0.182570E-01   12.0100           0
      1699 MEMB     12       OL       H13R     hL       0.138000E-01   1.00800           0
      1700 MEMB     12       OL       H13S     hL       0.138000E-01   1.00800           0
      1701 MEMB     12       OL       C114     cD      -0.248490E-01   12.0100           0
      1702 MEMB     12       OL       H14R     hL       0.857200E-02   1.00800           0
      1703 MEMB     12       OL       H14S     hL       0.857200E-02   1.00800           0
      1704 MEMB     12       OL       C115     cD      -0.232470E-01   12.0100           0
      1705 MEMB     12       OL       H15R     hL       0.104030E-01   1.00800           0
      1706 MEMB     12       OL       H15S     hL       0.104030E-01   1.00800           0
      1707 MEMB     12       OL       C116     cD      -0.124880E-01   12.0100           0
      1708 MEMB     12       OL       H16R     hL       0.136590E-01   1.00800           0
      1709 MEMB     12       OL       H16S     hL       0.136590E-01   1.00800           0
      1710 MEMB     12       OL       C117     cD       0.868400E-02   12.0100           0
      1711 MEMB     12       OL       H17R     hL       0.100260E-01   1.00800           0
      1712 MEMB     12       OL       H17S     hL       0.100260E-01   1.00800           0
      1713 MEMB     12       OL       C118     cD      -0.117290       12.0100           0
      1714 MEMB     12       OL       H18R     hL       0.266270E-01   1.00800           0
      1715 MEMB     12       OL       H18S     hL       0.266270E-01   1.00800           0
      1716 MEMB     12       OL       H18T     hL       0.266270E-01   1.00800           0
      1717 MEMB     13       PA       C116     cD      -0.125447       12.0100           0
      1718 MEMB     13       PA       H16R     hL       0.290470E-01   1.00800           0
      1719 MEMB     13       PA       H16S     hL       0.290470E-01   1.00800           0
      1720 MEMB     13       PA       H16T     hL       0.290470E-01   1.00800           0
      1721 MEMB     13       PA       C115     cD       0.139750E-01   12.0100           0
      1722 MEMB     13       PA       H15R     hL       0.929200E-02   1.00800           0
      1723 MEMB     13       PA       H15S     hL       0.929200E-02   1.00800           0
      1724 MEMB     13       PA       C114     cD      -0.200860E-01   12.0100           0
      1725 MEMB     13       PA       H14R     hL       0.159290E-01   1.00800           0
      1726 MEMB     13       PA       H14S     hL       0.159290E-01   1.00800           0
      1727 MEMB     13       PA       C113     cD      -0.330960E-01   12.0100           0
      1728 MEMB     13       PA       H13R     hL       0.146210E-01   1.00800           0
      1729 MEMB     13       PA       H13S     hL       0.146210E-01   1.00800           0
      1730 MEMB     13       PA       C112     cD      -0.276330E-01   12.0100           0
      1731 MEMB     13       PA       H12R     hL       0.113680E-01   1.00800           0
      1732 MEMB     13       PA       H12S     hL       0.113680E-01   1.00800           0
      1733 MEMB     13       PA       C111     cD      -0.252060E-01   12.0100           0
      1734 MEMB     13       PA       H11R     hL       0.143340E-01   1.00800           0
      1735 MEMB     13       PA       H11S     hL       0.143340E-01   1.00800           0
      1736 MEMB     13       PA       C110     cD      -0.288310E-01   12.0100           0
      1737 MEMB     13       PA       H10R     hL       0.146910E-01   1.00800           0
      1738 MEMB     13       PA       H10S     hL       0.146910E-01   1.00800           0
      1739 MEMB     13       PA       C19      cD      -0.304720E-01   12.0100           0
      1740 MEMB     13       PA       H9R      hL       0.138970E-01   1.00800           0
      1741 MEMB     13       PA       H9S      hL       0.138970E-01   1.00800           0
      1742 MEMB     13       PA       C18      cD      -0.157930E-01   12.0100           0
      1743 MEMB     13       PA       H8R      hL       0.906700E-02   1.00800           0
      1744 MEMB     13       PA       H8S      hL       0.906700E-02   1.00800           0
      1745 MEMB     13       PA       C17      cD      -0.196300E-01   12.0100           0
      1746 MEMB     13       PA       H7R      hL       0.110410E-01   1.00800           0
      1747 MEMB     13       PA       H7S      hL       0.110410E-01   1.00800           0
      1748 MEMB     13       PA       C16      cD      -0.244270E-01   12.0100           0
      1749 MEMB     13       PA       H6R      hL       0.133340E-01   1.00800           0
      1750 MEMB     13       PA       H6S      hL       0.133340E-01   1.00800           0
      1751 MEMB     13       PA       C15      cD      -0.293870E-01   12.0100           0
      1752 MEMB     13       PA       H5R      hL       0.167630E-01   1.00800           0
      1753 MEMB     13       PA       H5S      hL       0.167630E-01   1.00800           0
      1754 MEMB     13       PA       C14      cD      -0.300990E-01   12.0100           0
      1755 MEMB     13       PA       H4R      hL       0.208770E-01   1.00800           0
      1756 MEMB     13       PA       H4S      hL       0.208770E-01   1.00800           0
      1757 MEMB     13       PA       C13      cD      -0.488200E-02   12.0100           0
      1758 MEMB     13       PA       H3R      hL       0.190070E-01   1.00800           0
      1759 MEMB     13       PA       H3S      hL       0.190070E-01   1.00800           0
      1760 MEMB     13       PA       C12      cD      -0.149259       12.0100           0
      1761 MEMB     13       PA       H2R      hL       0.473450E-01   1.00800           0
      1762 MEMB     13       PA       H2S      hL       0.473450E-01   1.00800           0
      1763 MEMB     13       PC       C11      cC       0.910403       12.0100           0
      1764 MEMB     13       PC       O12      oC      -0.671566       16.0000           0
      1765 MEMB     13       PC       O11      oS      -0.575489       16.0000           0
      1766 MEMB     13       PC       C1       cA       0.196939       12.0100           0
      1767 MEMB     13       PC       HR       hE       0.704690E-01   1.00800           0
      1768 MEMB     13       PC       HS       hE       0.704690E-01   1.00800           0
      1769 MEMB     13       PC       C2       cA       0.281242       12.0100           0
      1770 MEMB     13       PC       HX       hE       0.632530E-01   1.00800           0
      1771 MEMB     13       PC       C3       cA       0.174590E-01   12.0100           0
      1772 MEMB     13       PC       HA       hE       0.955910E-01   1.00800           0
      1773 MEMB     13       PC       HB       hE       0.955910E-01   1.00800           0
      1774 MEMB     13       PC       O31      oT      -0.509480       16.0000           0
      1775 MEMB     13       PC       P31      pA       1.339721       30.9700           0
      1776 MEMB     13       PC       O32      oT      -0.508176       16.0000           0
      1777 MEMB     13       PC       C31      cA       0.166801       12.0100           0
      1778 MEMB     13       PC       H1A      hE       0.785340E-01   1.00800           0
      1779 MEMB     13       PC       H1B      hE       0.785340E-01   1.00800           0
      1780 MEMB     13       PC       C32      cA      -0.170824       12.0100           0
      1781 MEMB     13       PC       H2A      hX       0.136415       1.00800           0
      1782 MEMB     13       PC       H2B      hX       0.136415       1.00800           0
      1783 MEMB     13       PC       N31      nA       0.245262       14.0100           0
      1784 MEMB     13       PC       C33      cA      -0.338973       12.0100           0
      1785 MEMB     13       PC       H3A      hX       0.172230       1.00800           0
      1786 MEMB     13       PC       H3B      hX       0.172230       1.00800           0
      1787 MEMB     13       PC       H3C      hX       0.172230       1.00800           0
      1788 MEMB     13       PC       C34      cA      -0.338973       12.0100           0
      1789 MEMB     13       PC       H4A      hX       0.172230       1.00800           0
      1790 MEMB     13       PC       H4B      hX       0.172230       1.00800           0
      1791 MEMB     13       PC       H4C      hX       0.172230       1.00800           0
      1792 MEMB     13       PC       C35      cA      -0.338973       12.0100           0
      1793 MEMB     13       PC       H5A      hX       0.172230       1.00800           0
      1794 MEMB     13       PC       H5B      hX       0.172230       1.00800           0
      1795 MEMB     13       PC       H5C      hX       0.172230       1.00800           0
      1796 MEMB     13       PC       O33      oP      -0.875812       16.0000           0
      1797 MEMB     13       PC       O34      oP      -0.875812       16.0000           0
      1798 MEMB     13       PC       O21      oS      -0.552948       16.0000           0
      1799 MEMB     13       PC       C21      cC       0.897613       12.0100           0
      1800 MEMB     13       PC       O22      oC      -0.673755       16.0000           0
      1801 MEMB     13       OL       C12      cD      -0.143418       12.0100           0
      1802 MEMB     13       OL       H2R      hL       0.428610E-01   1.00800           0
      1803 MEMB     13       OL       H2S      hL       0.428610E-01   1.00800           0
      1804 MEMB     13       OL       C13      cD       0.161900E-02   12.0100           0
      1805 MEMB     13       OL       H3R      hL       0.195290E-01   1.00800           0
      1806 MEMB     13       OL       H3S      hL       0.195290E-01   1.00800           0
      1807 MEMB     13       OL       C14      cD      -0.229600E-01   12.0100           0
      1808 MEMB     13       OL       H4R      hL       0.181340E-01   1.00800           0
      1809 MEMB     13       OL       H4S      hL       0.181340E-01   1.00800           0
      1810 MEMB     13       OL       C15      cD      -0.166920E-01   12.0100           0
      1811 MEMB     13       OL       H5R      hL       0.869000E-02   1.00800           0
      1812 MEMB     13       OL       H5S      hL       0.869000E-02   1.00800           0
      1813 MEMB     13       OL       C16      cD      -0.237890E-01   12.0100           0
      1814 MEMB     13       OL       H6R      hL       0.926600E-02   1.00800           0
      1815 MEMB     13       OL       H6S      hL       0.926600E-02   1.00800           0
      1816 MEMB     13       OL       C17      cD      -0.174950E-01   12.0100           0
      1817 MEMB     13       OL       H7R      hL       0.195980E-01   1.00800           0
      1818 MEMB     13       OL       H7S      hL       0.195980E-01   1.00800           0
      1819 MEMB     13       OL       C18      cD       0.317750E-01   12.0100           0
      1820 MEMB     13       OL       H8R      hL       0.326850E-01   1.00800           0
      1821 MEMB     13       OL       H8S      hL       0.326850E-01   1.00800           0
      1822 MEMB     13       OL       C19      cB      -0.244228       12.0100           0
      1823 MEMB     13       OL       H9R      hB       0.131512       1.00800           0
      1824 MEMB     13       OL       C110     cB      -0.239284       12.0100           0
      1825 MEMB     13       OL       H10R     hB       0.126878       1.00800           0
      1826 MEMB     13       OL       C111     cD       0.290590E-01   12.0100           0
      1827 MEMB     13       OL       H11R     hL       0.335310E-01   1.00800           0
      1828 MEMB     13       OL       H11S     hL       0.335310E-01   1.00800           0
      1829 MEMB     13       OL       C112     cD      -0.263530E-01   12.0100           0
      1830 MEMB     13       OL       H12R     hL       0.197170E-01   1.00800           0
      1831 MEMB     13       OL       H12S     hL       0.197170E-01   1.00800           0
      1832 MEMB     13       OL       C113     cD      -0.182570E-01   12.0100           0
      1833 MEMB     13       OL       H13R     hL       0.138000E-01   1.00800           0
      1834 MEMB     13       OL       H13S     hL       0.138000E-01   1.00800           0
      1835 MEMB     13       OL       C114     cD      -0.248490E-01   12.0100           0
      1836 MEMB     13       OL       H14R     hL       0.857200E-02   1.00800           0
      1837 MEMB     13       OL       H14S     hL       0.857200E-02   1.00800           0
      1838 MEMB     13       OL       C115     cD      -0.232470E-01   12.0100           0
      1839 MEMB     13       OL       H15R     hL       0.104030E-01   1.00800           0
      1840 MEMB     13       OL       H15S     hL       0.104030E-01   1.00800           0
      1841 MEMB     13       OL       C116     cD      -0.124880E-01   12.0100           0
      1842 MEMB     13       OL       H16R     hL       0.136590E-01   1.00800           0
      1843 MEMB     13       OL       H16S     hL       0.136590E-01   1.00800           0
      1844 MEMB     13       OL       C117     cD       0.868400E-02   12.0100           0
      1845 MEMB     13       OL       H17R     hL       0.100260E-01   1.00800           0
      1846 MEMB     13       OL       H17S     hL       0.100260E-01   1.00800           0
      1847 MEMB     13       OL       C118     cD      -0.117290       12.0100           0
      1848 MEMB     13       OL       H18R     hL       0.266270E-01   1.00800           0
      1849 MEMB     13       OL       H18S     hL       0.266270E-01   1.00800           0
      1850 MEMB     13       OL       H18T     hL       0.266270E-01   1.00800           0
      1851 MEMB     14       PA       C116     cD      -0.125447       12.0100           0
      1852 MEMB     14       PA       H16R     hL       0.290470E-01   1.00800           0
      1853 MEMB     14       PA       H16S     hL       0.290470E-01   1.00800           0
      1854 MEMB     14       PA       H16T     hL       0.290470E-01   1.00800           0
      1855 MEMB     14       PA       C115     cD       0.139750E-01   12.0100           0
      1856 MEMB     14       PA       H15R     hL       0.929200E-02   1.00800           0
      1857 MEMB     14       PA       H15S     hL       0.929200E-02   1.00800           0
      1858 MEMB     14       PA       C114     cD      -0.200860E-01   12.0100           0
      1859 MEMB     14       PA       H14R     hL       0.159290E-01   1.00800           0
      1860 MEMB     14       PA       H14S     hL       0.159290E-01   1.00800           0
      1861 MEMB     14       PA       C113     cD      -0.330960E-01   12.0100           0
      1862 MEMB     14       PA       H13R     hL       0.146210E-01   1.00800           0
      1863 MEMB     14       PA       H13S     hL       0.146210E-01   1.00800           0
      1864 MEMB     14       PA       C112     cD      -0.276330E-01   12.0100           0
      1865 MEMB     14       PA       H12R     hL       0.113680E-01   1.00800           0
      1866 MEMB     14       PA       H12S     hL       0.113680E-01   1.00800           0
      1867 MEMB     14       PA       C111     cD      -0.252060E-01   12.0100           0
      1868 MEMB     14       PA       H11R     hL       0.143340E-01   1.00800           0
      1869 MEMB     14       PA       H11S     hL       0.143340E-01   1.00800           0
      1870 MEMB     14       PA       C110     cD      -0.288310E-01   12.0100           0
      1871 MEMB     14       PA       H10R     hL       0.146910E-01   1.00800           0
      1872 MEMB     14       PA       H10S     hL       0.146910E-01   1.00800           0
      1873 MEMB     14       PA       C19      cD      -0.304720E-01   12.0100           0
      1874 MEMB     14       PA       H9R      hL       0.138970E-01   1.00800           0
      1875 MEMB     14       PA       H9S      hL       0.138970E-01   1.00800           0
      1876 MEMB     14       PA       C18      cD      -0.157930E-01   12.0100           0
      1877 MEMB     14       PA       H8R      hL       0.906700E-02   1.00800           0
      1878 MEMB     14       PA       H8S      hL       0.906700E-02   1.00800           0
      1879 MEMB     14       PA       C17      cD      -0.196300E-01   12.0100           0
      1880 MEMB     14       PA       H7R      hL       0.110410E-01   1.00800           0
      1881 MEMB     14       PA       H7S      hL       0.110410E-01   1.00800           0
      1882 MEMB     14       PA       C16      cD      -0.244270E-01   12.0100           0
      1883 MEMB     14       PA       H6R      hL       0.133340E-01   1.00800           0
      1884 MEMB     14       PA       H6S      hL       0.133340E-01   1.00800           0
      1885 MEMB     14       PA       C15      cD      -0.293870E-01   12.0100           0
      1886 MEMB     14       PA       H5R      hL       0.167630E-01   1.00800           0
      1887 MEMB     14       PA       H5S      hL       0.167630E-01   1.00800           0
      1888 MEMB     14       PA       C14      cD      -0.300990E-01   12.0100           0
      1889 MEMB     14       PA       H4R      hL       0.208770E-01   1.00800           0
      1890 MEMB     14       PA       H4S      hL       0.208770E-01   1.00800           0
      1891 MEMB     14       PA       C13      cD      -0.488200E-02   12.0100           0
      1892 MEMB     14       PA       H3R      hL       0.190070E-01   1.00800           0
      1893 MEMB     14       PA       H3S      hL       0.190070E-01   1.00800           0
      1894 MEMB     14       PA       C12      cD      -0.149259       12.0100           0
      1895 MEMB     14       PA       H2R      hL       0.473450E-01   1.00800           0
      1896 MEMB     14       PA       H2S      hL       0.473450E-01   1.00800           0
      1897 MEMB     14       PC       C11      cC       0.910403       12.0100           0
      1898 MEMB     14       PC       O12      oC      -0.671566       16.0000           0
      1899 MEMB     14       PC       O11      oS      -0.575489       16.0000           0
      1900 MEMB     14       PC       C1       cA       0.196939       12.0100           0
      1901 MEMB     14       PC       HR       hE       0.704690E-01   1.00800           0
      1902 MEMB     14       PC       HS       hE       0.704690E-01   1.00800           0
      1903 MEMB     14       PC       C2       cA       0.281242       12.0100           0
      1904 MEMB     14       PC       HX       hE       0.632530E-01   1.00800           0
      1905 MEMB     14       PC       C3       cA       0.174590E-01   12.0100           0
      1906 MEMB     14       PC       HA       hE       0.955910E-01   1.00800           0
      1907 MEMB     14       PC       HB       hE       0.955910E-01   1.00800           0
      1908 MEMB     14       PC       O31      oT      -0.509480       16.0000           0
      1909 MEMB     14       PC       P31      pA       1.339721       30.9700           0
      1910 MEMB     14       PC       O32      oT      -0.508176       16.0000           0
      1911 MEMB     14       PC       C31      cA       0.166801       12.0100           0
      1912 MEMB     14       PC       H1A      hE       0.785340E-01   1.00800           0
      1913 MEMB     14       PC       H1B      hE       0.785340E-01   1.00800           0
      1914 MEMB     14       PC       C32      cA      -0.170824       12.0100           0
      1915 MEMB     14       PC       H2A      hX       0.136415       1.00800           0
      1916 MEMB     14       PC       H2B      hX       0.136415       1.00800           0
      1917 MEMB     14       PC       N31      nA       0.245262       14.0100           0
      1918 MEMB     14       PC       C33      cA      -0.338973       12.0100           0
      1919 MEMB     14       PC       H3A      hX       0.172230       1.00800           0
      1920 MEMB     14       PC       H3B      hX       0.172230       1.00800           0
      1921 MEMB     14       PC       H3C      hX       0.172230       1.00800           0
      1922 MEMB     14       PC       C34      cA      -0.338973       12.0100           0
      1923 MEMB     14       PC       H4A      hX       0.172230       1.00800           0
      1924 MEMB     14       PC       H4B      hX       0.172230       1.00800           0
      1925 MEMB     14       PC       H4C      hX       0.172230       1.00800           0
      1926 MEMB     14       PC       C35      cA      -0.338973       12.0100           0
      1927 MEMB     14       PC       H5A      hX       0.172230       1.00800           0
      1928 MEMB     14       PC       H5B      hX       0.172230       1.00800           0
      1929 MEMB     14       PC       H5C      hX       0.172230       1.00800           0
      1930 MEMB     14       PC       O33      oP      -0.875812       16.0000           0
      1931 MEMB     14       PC       O34      oP      -0.875812       16.0000           0
      1932 MEMB     14       PC       O21      oS      -0.552948       16.0000           0
      1933 MEMB     14       PC       C21      cC       0.897613       12.0100           0
      1934 MEMB     14       PC       O22      oC      -0.673755       16.0000           0
      1935 MEMB     14       OL       C12      cD      -0.143418       12.0100           0
      1936 MEMB     14       OL       H2R      hL       0.428610E-01   1.00800           0
      1937 MEMB     14       OL       H2S      hL       0.428610E-01   1.00800           0
      1938 MEMB     14       OL       C13      cD       0.161900E-02   12.0100           0
      1939 MEMB     14       OL       H3R      hL       0.195290E-01   1.00800           0
      1940 MEMB     14       OL       H3S      hL       0.195290E-01   1.00800           0
      1941 MEMB     14       OL       C14      cD      -0.229600E-01   12.0100           0
      1942 MEMB     14       OL       H4R      hL       0.181340E-01   1.00800           0
      1943 MEMB     14       OL       H4S      hL       0.181340E-01   1.00800           0
      1944 MEMB     14       OL       C15      cD      -0.166920E-01   12.0100           0
      1945 MEMB     14       OL       H5R      hL       0.869000E-02   1.00800           0
      1946 MEMB     14       OL       H5S      hL       0.869000E-02   1.00800           0
      1947 MEMB     14       OL       C16      cD      -0.237890E-01   12.0100           0
      1948 MEMB     14       OL       H6R      hL       0.926600E-02   1.00800           0
      1949 MEMB     14       OL       H6S      hL       0.926600E-02   1.00800           0
      1950 MEMB     14       OL       C17      cD      -0.174950E-01   12.0100           0
      1951 MEMB     14       OL       H7R      hL       0.195980E-01   1.00800           0
      1952 MEMB     14       OL       H7S      hL       0.195980E-01   1.00800           0
      1953 MEMB     14       OL       C18      cD       0.317750E-01   12.0100           0
      1954 MEMB     14       OL       H8R      hL       0.326850E-01   1.00800           0
      1955 MEMB     14       OL       H8S      hL       0.326850E-01   1.00800           0
      1956 MEMB     14       OL       C19      cB      -0.244228       12.0100           0
      1957 MEMB     14       OL       H9R      hB       0.131512       1.00800           0
      1958 MEMB     14       OL       C110     cB      -0.239284       12.0100           0
      1959 MEMB     14       OL       H10R     hB       0.126878       1.00800           0
      1960 MEMB     14       OL       C111     cD       0.290590E-01   12.0100           0
      1961 MEMB     14       OL       H11R     hL       0.335310E-01   1.00800           0
      1962 MEMB     14       OL       H11S     hL       0.335310E-01   1.00800           0
      1963 MEMB     14       OL       C112     cD      -0.263530E-01   12.0100           0
      1964 MEMB     14       OL       H12R     hL       0.197170E-01   1.00800           0
      1965 MEMB     14       OL       H12S     hL       0.197170E-01   1.00800           0
      1966 MEMB     14       OL       C113     cD      -0.182570E-01   12.0100           0
      1967 MEMB     14       OL       H13R     hL       0.138000E-01   1.00800           0
      1968 MEMB     14       OL       H13S     hL       0.138000E-01   1.00800           0
      1969 MEMB     14       OL       C114     cD      -0.248490E-01   12.0100           0
      1970 MEMB     14       OL       H14R     hL       0.857200E-02   1.00800           0
      1971 MEMB     14       OL       H14S     hL       0.857200E-02   1.00800           0
      1972 MEMB     14       OL       C115     cD      -0.232470E-01   12.0100           0
      1973 MEMB     14       OL       H15R     hL       0.104030E-01   1.00800           0
      1974 MEMB     14       OL       H15S     hL       0.104030E-01   1.00800           0
      1975 MEMB     14       OL       C116     cD      -0.124880E-01   12.0100           0
      1976 MEMB     14       OL       H16R     hL       0.136590E-01   1.00800           0
      1977 MEMB     14       OL       H16S     hL       0.136590E-01   1.00800           0
      1978 MEMB     14       OL       C117     cD       0.868400E-02   12.0100           0
      1979 MEMB     14       OL       H17R     hL       0.100260E-01   1.00800           0
      1980 MEMB     14       OL       H17S     hL       0.100260E-01   1.00800           0
      1981 MEMB     14       OL       C118     cD      -0.117290       12.0100           0
      1982 MEMB     14       OL       H18R     hL       0.266270E-01   1.00800           0
      1983 MEMB     14       OL       H18S     hL       0.266270E-01   1.00800           0
      1984 MEMB     14       OL       H18T     hL       0.266270E-01   1.00800           0
      1985 MEMB     15       PA       C116     cD      -0.125447       12.0100           0
      1986 MEMB     15       PA       H16R     hL       0.290470E-01   1.00800           0
      1987 MEMB     15       PA       H16S     hL       0.290470E-01   1.00800           0
      1988 MEMB     15       PA       H16T     hL       0.290470E-01   1.00800           0
      1989 MEMB     15       PA       C115     cD       0.139750E-01   12.0100           0
      1990 MEMB     15       PA       H15R     hL       0.929200E-02   1.00800           0
      1991 MEMB     15       PA       H15S     hL       0.929200E-02   1.00800           0
      1992 MEMB     15       PA       C114     cD      -0.200860E-01   12.0100           0
      1993 MEMB     15       PA       H14R     hL       0.159290E-01   1.00800           0
      1994 MEMB     15       PA       H14S     hL       0.159290E-01   1.00800           0
      1995 MEMB     15       PA       C113     cD      -0.330960E-01   12.0100           0
      1996 MEMB     15       PA       H13R     hL       0.146210E-01   1.00800           0
      1997 MEMB     15       PA       H13S     hL       0.146210E-01   1.00800           0
      1998 MEMB     15       PA       C112     cD      -0.276330E-01   12.0100           0
      1999 MEMB     15       PA       H12R     hL       0.113680E-01   1.00800           0
      2000 MEMB     15       PA       H12S     hL       0.113680E-01   1.00800           0
      2001 MEMB     15       PA       C111     cD      -0.252060E-01   12.0100           0
      2002 MEMB     15       PA       H11R     hL       0.143340E-01   1.00800           0
      2003 MEMB     15       PA       H11S     hL       0.143340E-01   1.00800           0
      2004 MEMB     15       PA       C110     cD      -0.288310E-01   12.0100           0
      2005 MEMB     15       PA       H10R     hL       0.146910E-01   1.00800           0
      2006 MEMB     15       PA       H10S     hL       0.146910E-01   1.00800           0
      2007 MEMB     15       PA       C19      cD      -0.304720E-01   12.0100           0
      2008 MEMB     15       PA       H9R      hL       0.138970E-01   1.00800           0
      2009 MEMB     15       PA       H9S      hL       0.138970E-01   1.00800           0
      2010 MEMB     15       PA       C18      cD      -0.157930E-01   12.0100           0
      2011 MEMB     15       PA       H8R      hL       0.906700E-02   1.00800           0
      2012 MEMB     15       PA       H8S      hL       0.906700E-02   1.00800           0
      2013 MEMB     15       PA       C17      cD      -0.196300E-01   12.0100           0
      2014 MEMB     15       PA       H7R      hL       0.110410E-01   1.00800           0
      2015 MEMB     15       PA       H7S      hL       0.110410E-01   1.00800           0
      2016 MEMB     15       PA       C16      cD      -0.244270E-01   12.0100           0
      2017 MEMB     15       PA       H6R      hL       0.133340E-01   1.00800           0
      2018 MEMB     15       PA       H6S      hL       0.133340E-01   1.00800           0
      2019 MEMB     15       PA       C15      cD      -0.293870E-01   12.0100           0
      2020 MEMB     15       PA       H5R      hL       0.167630E-01   1.00800           0
      2021 MEMB     15       PA       H5S      hL       0.167630E-01   1.00800           0
      2022 MEMB     15       PA       C14      cD      -0.300990E-01   12.0100           0
      2023 MEMB     15       PA       H4R      hL       0.208770E-01   1.00800           0
      2024 MEMB     15       PA       H4S      hL       0.208770E-01   1.00800           0
      2025 MEMB     15       PA       C13      cD      -0.488200E-02   12.0100           0
      2026 MEMB     15       PA       H3R      hL       0.190070E-01   1.00800           0
      2027 MEMB     15       PA       H3S      hL       0.190070E-01   1.00800           0
      2028 MEMB     15       PA       C12      cD      -0.149259       12.0100           0
      2029 MEMB     15       PA       H2R      hL       0.473450E-01   1.00800           0
      2030 MEMB     15       PA       H2S      hL       0.473450E-01   1.00800           0
      2031 MEMB     15       PC       C11      cC       0.910403       12.0100           0
      2032 MEMB     15       PC       O12      oC      -0.671566       16.0000           0
      2033 MEMB     15       PC       O11      oS      -0.575489       16.0000           0
      2034 MEMB     15       PC       C1       cA       0.196939       12.0100           0
      2035 MEMB     15       PC       HR       hE       0.704690E-01   1.00800           0
      2036 MEMB     15       PC       HS       hE       0.704690E-01   1.00800           0
      2037 MEMB     15       PC       C2       cA       0.281242       12.0100           0
      2038 MEMB     15       PC       HX       hE       0.632530E-01   1.00800           0
      2039 MEMB     15       PC       C3       cA       0.174590E-01   12.0100           0
      2040 MEMB     15       PC       HA       hE       0.955910E-01   1.00800           0
      2041 MEMB     15       PC       HB       hE       0.955910E-01   1.00800           0
      2042 MEMB     15       PC       O31      oT      -0.509480       16.0000           0
      2043 MEMB     15       PC       P31      pA       1.339721       30.9700           0
      2044 MEMB     15       PC       O32      oT      -0.508176       16.0000           0
      2045 MEMB     15       PC       C31      cA       0.166801       12.0100           0
      2046 MEMB     15       PC       H1A      hE       0.785340E-01   1.00800           0
      2047 MEMB     15       PC       H1B      hE       0.785340E-01   1.00800           0
      2048 MEMB     15       PC       C32      cA      -0.170824       12.0100           0
      2049 MEMB     15       PC       H2A      hX       0.136415       1.00800           0
      2050 MEMB     15       PC       H2B      hX       0.136415       1.00800           0
      2051 MEMB     15       PC       N31      nA       0.245262       14.0100           0
      2052 MEMB     15       PC       C33      cA      -0.338973       12.0100           0
      2053 MEMB     15       PC       H3A      hX       0.172230       1.00800           0
      2054 MEMB     15       PC       H3B      hX       0.172230       1.00800           0
      2055 MEMB     15       PC       H3C      hX       0.172230       1.00800           0
      2056 MEMB     15       PC       C34      cA      -0.338973       12.0100           0
      2057 MEMB     15       PC       H4A      hX       0.172230       1.00800           0
      2058 MEMB     15       PC       H4B      hX       0.172230       1.00800           0
      2059 MEMB     15       PC       H4C      hX       0.172230       1.00800           0
      2060 MEMB     15       PC       C35      cA      -0.338973       12.0100           0
      2061 MEMB     15       PC       H5A      hX       0.172230       1.00800           0
      2062 MEMB     15       PC       H5B      hX       0.172230       1.00800           0
      2063 MEMB     15       PC       H5C      hX       0.172230       1.00800           0
      2064 MEMB     15       PC       O33      oP      -0.875812       16.0000           0
      2065 MEMB     15       PC       O34      oP      -0.875812       16.0000           0
      2066 MEMB     15       PC       O21      oS      -0.552948       16.0000           0
      2067 MEMB     15       PC       C21      cC       0.897613       12.0100           0
      2068 MEMB     15       PC       O22      oC      -0.673755       16.0000           0
      2069 MEMB     15       OL       C12      cD      -0.143418       12.0100           0
      2070 MEMB     15       OL       H2R      hL       0.428610E-01   1.00800           0
      2071 MEMB     15       OL       H2S      hL       0.428610E-01   1.00800           0
      2072 MEMB     15       OL       C13      cD       0.161900E-02   12.0100           0
      2073 MEMB     15       OL       H3R      hL       0.195290E-01   1.00800           0
      2074 MEMB     15       OL       H3S      hL       0.195290E-01   1.00800           0
      2075 MEMB     15       OL       C14      cD      -0.229600E-01   12.0100           0
      2076 MEMB     15       OL       H4R      hL       0.181340E-01   1.00800           0
      2077 MEMB     15       OL       H4S      hL       0.181340E-01   1.00800           0
      2078 MEMB     15       OL       C15      cD      -0.166920E-01   12.0100           0
      2079 MEMB     15       OL       H5R      hL       0.869000E-02   1.00800           0
      2080 MEMB     15       OL       H5S      hL       0.869000E-02   1.00800           0
      2081 MEMB     15       OL       C16      cD      -0.237890E-01   12.0100           0
      2082 MEMB     15       OL       H6R      hL       0.926600E-02   1.00800           0
      2083 MEMB     15       OL       H6S      hL       0.926600E-02   1.00800           0
      2084 MEMB     15       OL       C17      cD      -0.174950E-01   12.0100           0
      2085 MEMB     15       OL       H7R      hL       0.195980E-01   1.00800           0
      2086 MEMB     15       OL       H7S      hL       0.195980E-01   1.00800           0
      2087 MEMB     15       OL       C18      cD       0.317750E-01   12.0100           0
      2088 MEMB     15       OL       H8R      hL       0.326850E-01   1.00800           0
      2089 MEMB     15       OL       H8S      hL       0.326850E-01   1.00800           0
      2090 MEMB     15       OL       C19      cB      -0.244228       12.0100           0
      2091 MEMB     15       OL       H9R      hB       0.131512       1.00800           0
      2092 MEMB     15       OL       C110     cB      -0.239284       12.0100           0
      2093 MEMB     15       OL       H10R     hB       0.126878       1.00800           0
      2094 MEMB     15       OL       C111     cD       0.290590E-01   12.0100           0
      2095 MEMB     15       OL       H11R     hL       0.335310E-01   1.00800           0
      2096 MEMB     15       OL       H11S     hL       0.335310E-01   1.00800           0
      2097 MEMB     15       OL       C112     cD      -0.263530E-01   12.0100           0
      2098 MEMB     15       OL       H12R     hL       0.197170E-01   1.00800           0
      2099 MEMB     15       OL       H12S     hL       0.197170E-01   1.00800           0
      2100 MEMB     15       OL       C113     cD      -0.182570E-01   12.0100           0
      2101 MEMB     15       OL       H13R     hL       0.138000E-01   1.00800           0
      2102 MEMB     15       OL       H13S     hL       0.138000E-01   1.00800           0
      2103 MEMB     15       OL       C114     cD      -0.248490E-01   12.0100           0
      2104 MEMB     15       OL       H14R     hL       0.857200E-02   1.00800           0
      2105 MEMB     15       OL       H14S     hL       0.857200E-02   1.00800           0
      2106 MEMB     15       OL       C115     cD      -0.232470E-01   12.0100           0
      2107 MEMB     15       OL       H15R     hL       0.104030E-01   1.00800           0
      2108 MEMB     15       OL       H15S     hL       0.104030E-01   1.00800           0
      2109 MEMB     15       OL       C116     cD      -0.124880E-01   12.0100           0
      2110 MEMB     15       OL       H16R     hL       0.136590E-01   1.00800           0
      2111 MEMB     15       OL       H16S     hL       0.136590E-01   1.00800           0
      2112 MEMB     15       OL       C117     cD       0.868400E-02   12.0100           0
      2113 MEMB     15       OL       H17R     hL       0.100260E-01   1.00800           0
      2114 MEMB     15       OL       H17S     hL       0.100260E-01   1.00800           0
      2115 MEMB     15       OL       C118     cD      -0.117290       12.0100           0
      2116 MEMB     15       OL       H18R     hL       0.266270E-01   1.00800           0
      2117 MEMB     15       OL       H18S     hL       0.266270E-01   1.00800           0
      2118 MEMB     15       OL       H18T     hL       0.266270E-01   1.00800           0
      2119 MEMB     16       PA       C116     cD      -0.125447       12.0100           0
      2120 MEMB     16       PA       H16R     hL       0.290470E-01   1.00800           0
      2121 MEMB     16       PA       H16S     hL       0.290470E-01   1.00800           0
      2122 MEMB     16       PA       H16T     hL       0.290470E-01   1.00800           0
      2123 MEMB     16       PA       C115     cD       0.139750E-01   12.0100           0
      2124 MEMB     16       PA       H15R     hL       0.929200E-02   1.00800           0
      2125 MEMB     16       PA       H15S     hL       0.929200E-02   1.00800           0
      2126 MEMB     16       PA       C114     cD      -0.200860E-01   12.0100           0
      2127 MEMB     16       PA       H14R     hL       0.159290E-01   1.00800           0
      2128 MEMB     16       PA       H14S     hL       0.159290E-01   1.00800           0
      2129 MEMB     16       PA       C113     cD      -0.330960E-01   12.0100           0
      2130 MEMB     16       PA       H13R     hL       0.146210E-01   1.00800           0
      2131 MEMB     16       PA       H13S     hL       0.146210E-01   1.00800           0
      2132 MEMB     16       PA       C112     cD      -0.276330E-01   12.0100           0
      2133 MEMB     16       PA       H12R     hL       0.113680E-01   1.00800           0
      2134 MEMB     16       PA       H12S     hL       0.113680E-01   1.00800           0
      2135 MEMB     16       PA       C111     cD      -0.252060E-01   12.0100           0
      2136 MEMB     16       PA       H11R     hL       0.143340E-01   1.00800           0
      2137 MEMB     16       PA       H11S     hL       0.143340E-01   1.00800           0
      2138 MEMB     16       PA       C110     cD      -0.288310E-01   12.0100           0
      2139 MEMB     16       PA       H10R     hL       0.146910E-01   1.00800           0
      2140 MEMB     16       PA       H10S     hL       0.146910E-01   1.00800           0
      2141 MEMB     16       PA       C19      cD      -0.304720E-01   12.0100           0
      2142 MEMB     16       PA       H9R      hL       0.138970E-01   1.00800           0
      2143 MEMB     16       PA       H9S      hL       0.138970E-01   1.00800           0
      2144 MEMB     16       PA       C18      cD      -0.157930E-01   12.0100           0
      2145 MEMB     16       PA       H8R      hL       0.906700E-02   1.00800           0
      2146 MEMB     16       PA       H8S      hL       0.906700E-02   1.00800           0
      2147 MEMB     16       PA       C17      cD      -0.196300E-01   12.0100           0
      2148 MEMB     16       PA       H7R      hL       0.110410E-01   1.00800           0
      2149 MEMB     16       PA       H7S      hL       0.110410E-01   1.00800           0
      2150 MEMB     16       PA       C16      cD      -0.244270E-01   12.0100           0
      2151 MEMB     16       PA       H6R      hL       0.133340E-01   1.00800           0
      2152 MEMB     16       PA       H6S      hL       0.133340E-01   1.00800           0
      2153 MEMB     16       PA       C15      cD      -0.293870E-01   12.0100           0
      2154 MEMB     16       PA       H5R      hL       0.167630E-01   1.00800           0
      2155 MEMB     16       PA       H5S      hL       0.167630E-01   1.00800           0
      2156 MEMB     16       PA       C14      cD      -0.300990E-01   12.0100           0
      2157 MEMB     16       PA       H4R      hL       0.208770E-01   1.00800           0
      2158 MEMB     16       PA       H4S      hL       0.208770E-01   1.00800           0
      2159 MEMB     16       PA       C13      cD      -0.488200E-02   12.0100           0
      2160 MEMB     16       PA       H3R      hL       0.190070E-01   1.00800           0
      2161 MEMB     16       PA       H3S      hL       0.190070E-01   1.00800           0
      2162 MEMB     16       PA       C12      cD      -0.149259       12.0100           0
      2163 MEMB     16       PA       H2R      hL       0.473450E-01   1.00800           0
      2164 MEMB     16       PA       H2S      hL       0.473450E-01   1.00800           0
      2165 MEMB     16       PC       C11      cC       0.910403       12.0100           0
      2166 MEMB     16       PC       O12      oC      -0.671566       16.0000           0
      2167 MEMB     16       PC       O11      oS      -0.575489       16.0000           0
      2168 MEMB     16       PC       C1       cA       0.196939       12.0100           0
      2169 MEMB     16       PC       HR       hE       0.704690E-01   1.00800           0
      2170 MEMB     16       PC       HS       hE       0.704690E-01   1.00800           0
      2171 MEMB     16       PC       C2       cA       0.281242       12.0100           0
      2172 MEMB     16       PC       HX       hE       0.632530E-01   1.00800           0
      2173 MEMB     16       PC       C3       cA       0.174590E-01   12.0100           0
      2174 MEMB     16       PC       HA       hE       0.955910E-01   1.00800           0
      2175 MEMB     16       PC       HB       hE       0.955910E-01   1.00800           0
      2176 MEMB     16       PC       O31      oT      -0.509480       16.0000           0
      2177 MEMB     16       PC       P31      pA       1.339721       30.9700           0
      2178 MEMB     16       PC       O32      oT      -0.508176       16.0000           0
      2179 MEMB     16       PC       C31      cA       0.166801       12.0100           0
      2180 MEMB     16       PC       H1A      hE       0.785340E-01   1.00800           0
      2181 MEMB     16       PC       H1B      hE       0.785340E-01   1.00800           0
      2182 MEMB     16       PC       C32      cA      -0.170824       12.0100           0
      2183 MEMB     16       PC       H2A      hX       0.136415       1.00800           0
      2184 MEMB     16       PC       H2B      hX       0.136415       1.00800           0
      2185 MEMB     16       PC       N31      nA       0.245262       14.0100           0
      2186 MEMB     16       PC       C33      cA      -0.338973       12.0100           0
      2187 MEMB     16       PC       H3A      hX       0.172230       1.00800           0
      2188 MEMB     16       PC       H3B      hX       0.172230       1.00800           0
      2189 MEMB     16       PC       H3C      hX       0.172230       1.00800           0
      2190 MEMB     16       PC       C34      cA      -0.338973       12.0100           0
      2191 MEMB     16       PC       H4A      hX       0.172230       1.00800           0
      2192 MEMB     16       PC       H4B      hX       0.172230       1.00800           0
      2193 MEMB     16       PC       H4C      hX       0.172230       1.00800           0
      2194 MEMB     16       PC       C35      cA      -0.338973       12.0100           0
      2195 MEMB     16       PC       H5A      hX       0.172230       1.00800           0
      2196 MEMB     16       PC       H5B      hX       0.172230       1.00800           0
      2197 MEMB     16       PC       H5C      hX       0.172230       1.00800           0
      2198 MEMB     16       PC       O33      oP      -0.875812       16.0000           0
      2199 MEMB     16       PC       O34      oP      -0.875812       16.0000           0
      2200 MEMB     16       PC       O21      oS      -0.552948       16.0000           0
      2201 MEMB     16       PC       C21      cC       0.897613       12.0100           0
      2202 MEMB     16       PC       O22      oC      -0.673755       16.0000           0
      2203 MEMB     16       OL       C12      cD      -0.143418       12.0100           0
      2204 MEMB     16       OL       H2R      hL       0.428610E-01   1.00800           0
      2205 MEMB     16       OL       H2S      hL       0.428610E-01   1.00800           0
      2206 MEMB     16       OL       C13      cD       0.161900E-02   12.0100           0
      2207 MEMB     16       OL       H3R      hL       0.195290E-01   1.00800           0
      2208 MEMB     16       OL       H3S      hL       0.195290E-01   1.00800           0
      2209 MEMB     16       OL       C14      cD      -0.229600E-01   12.0100           0
      2210 MEMB     16       OL       H4R      hL       0.181340E-01   1.00800           0
      2211 MEMB     16       OL       H4S      hL       0.181340E-01   1.00800           0
      2212 MEMB     16       OL       C15      cD      -0.166920E-01   12.0100           0
      2213 MEMB     16       OL       H5R      hL       0.869000E-02   1.00800           0
      2214 MEMB     16       OL       H5S      hL       0.869000E-02   1.00800           0
      2215 MEMB     16       OL       C16      cD      -0.237890E-01   12.0100           0
      2216 MEMB     16       OL       H6R      hL       0.926600E-02   1.00800           0
      2217 MEMB     16       OL       H6S      hL       0.926600E-02   1.00800           0
      2218 MEMB     16       OL       C17      cD      -0.174950E-01   12.0100           0
      2219 MEMB     16       OL       H7R      hL       0.195980E-01   1.00800           0
      2220 MEMB     16       OL       H7S      hL       0.195980E-01   1.00800           0
      2221 MEMB     16       OL       C18      cD       0.317750E-01   12.0100           0
      2222 MEMB     16       OL       H8R      hL       0.326850E-01   1.00800           0
      2223 MEMB     16       OL       H8S      hL       0.326850E-01   1.00800           0
      2224 MEMB     16       OL       C19      cB      -0.244228       12.0100           0
      2225 MEMB     16       OL       H9R      hB       0.131512       1.00800           0
      2226 MEMB     16       OL       C110     cB      -0.239284       12.0100           0
      2227 MEMB     16       OL       H10R     hB       0.126878       1.00800           0
      2228 MEMB     16       OL       C111     cD       0.290590E-01   12.0100           0
      2229 MEMB     16       OL       H11R     hL       0.335310E-01   1.00800           0
      2230 MEMB     16       OL       H11S     hL       0.335310E-01   1.00800           0
      2231 MEMB     16       OL       C112     cD      -0.263530E-01   12.0100           0
      2232 MEMB     16       OL       H12R     hL       0.197170E-01   1.00800           0
      2233 MEMB     16       OL       H12S     hL       0.197170E-01   1.00800           0
      2234 MEMB     16       OL       C113     cD      -0.182570E-01   12.0100           0
      2235 MEMB     16       OL       H13R     hL       0.138000E-01   1.00800           0
      2236 MEMB     16       OL       H13S     hL       0.138000E-01   1.00800           0
      2237 MEMB     16       OL       C114     cD      -0.248490E-01   12.0100           0
      2238 MEMB     16       OL       H14R     hL       0.857200E-02   1.00800           0
      2239 MEMB     16       OL       H14S     hL       0.857200E-02   1.00800           0
      2240 MEMB     16       OL       C115     cD      -0.232470E-01   12.0100           0
      2241 MEMB     16       OL       H15R     hL       0.104030E-01   1.00800           0
      2242 MEMB     16       OL       H15S     hL       0.104030E-01   1.00800           0
      2243 MEMB     16       OL       C116     cD      -0.124880E-01   12.0100           0
      2244 MEMB     16       OL       H16R     hL       0.136590E-01   1.00800           0
      2245 MEMB     16       OL       H16S     hL       0.136590E-01   1.00800           0
      2246 MEMB     16       OL       C117     cD       0.868400E-02   12.0100           0
      2247 MEMB     16       OL       H17R     hL       0.100260E-01   1.00800           0
      2248 MEMB     16       OL       H17S     hL       0.100260E-01   1.00800           0
      2249 MEMB     16       OL       C118     cD      -0.117290       12.0100           0
      2250 MEMB     16       OL       H18R     hL       0.266270E-01   1.00800           0
      2251 MEMB     16       OL       H18S     hL       0.266270E-01   1.00800           0
      2252 MEMB     16       OL       H18T     hL       0.266270E-01   1.00800           0
      2253 MEMB     17       PA       C116     cD      -0.125447       12.0100           0
      2254 MEMB     17       PA       H16R     hL       0.290470E-01   1.00800           0
      2255 MEMB     17       PA       H16S     hL       0.290470E-01   1.00800           0
      2256 MEMB     17       PA       H16T     hL       0.290470E-01   1.00800           0
      2257 MEMB     17       PA       C115     cD       0.139750E-01   12.0100           0
      2258 MEMB     17       PA       H15R     hL       0.929200E-02   1.00800           0
      2259 MEMB     17       PA       H15S     hL       0.929200E-02   1.00800           0
      2260 MEMB     17       PA       C114     cD      -0.200860E-01   12.0100           0
      2261 MEMB     17       PA       H14R     hL       0.159290E-01   1.00800           0
      2262 MEMB     17       PA       H14S     hL       0.159290E-01   1.00800           0
      2263 MEMB     17       PA       C113     cD      -0.330960E-01   12.0100           0
      2264 MEMB     17       PA       H13R     hL       0.146210E-01   1.00800           0
      2265 MEMB     17       PA       H13S     hL       0.146210E-01   1.00800           0
      2266 MEMB     17       PA       C112     cD      -0.276330E-01   12.0100           0
      2267 MEMB     17       PA       H12R     hL       0.113680E-01   1.00800           0
      2268 MEMB     17       PA       H12S     hL       0.113680E-01   1.00800           0
      2269 MEMB     17       PA       C111     cD      -0.252060E-01   12.0100           0
      2270 MEMB     17       PA       H11R     hL       0.143340E-01   1.00800           0
      2271 MEMB     17       PA       H11S     hL       0.143340E-01   1.00800           0
      2272 MEMB     17       PA       C110     cD      -0.288310E-01   12.0100           0
      2273 MEMB     17       PA       H10R     hL       0.146910E-01   1.00800           0
      2274 MEMB     17       PA       H10S     hL       0.146910E-01   1.00800           0
      2275 MEMB     17       PA       C19      cD      -0.304720E-01   12.0100           0
      2276 MEMB     17       PA       H9R      hL       0.138970E-01   1.00800           0
      2277 MEMB     17       PA       H9S      hL       0.138970E-01   1.00800           0
      2278 MEMB     17       PA       C18      cD      -0.157930E-01   12.0100           0
      2279 MEMB     17       PA       H8R      hL       0.906700E-02   1.00800           0
      2280 MEMB     17       PA       H8S      hL       0.906700E-02   1.00800           0
      2281 MEMB     17       PA       C17      cD      -0.196300E-01   12.0100           0
      2282 MEMB     17       PA       H7R      hL       0.110410E-01   1.00800           0
      2283 MEMB     17       PA       H7S      hL       0.110410E-01   1.00800           0
      2284 MEMB     17       PA       C16      cD      -0.244270E-01   12.0100           0
      2285 MEMB     17       PA       H6R      hL       0.133340E-01   1.00800           0
      2286 MEMB     17       PA       H6S      hL       0.133340E-01   1.00800           0
      2287 MEMB     17       PA       C15      cD      -0.293870E-01   12.0100           0
      2288 MEMB     17       PA       H5R      hL       0.167630E-01   1.00800           0
      2289 MEMB     17       PA       H5S      hL       0.167630E-01   1.00800           0
      2290 MEMB     17       PA       C14      cD      -0.300990E-01   12.0100           0
      2291 MEMB     17       PA       H4R      hL       0.208770E-01   1.00800           0
      2292 MEMB     17       PA       H4S      hL       0.208770E-01   1.00800           0
      2293 MEMB     17       PA       C13      cD      -0.488200E-02   12.0100           0
      2294 MEMB     17       PA       H3R      hL       0.190070E-01   1.00800           0
      2295 MEMB     17       PA       H3S      hL       0.190070E-01   1.00800           0
      2296 MEMB     17       PA       C12      cD      -0.149259       12.0100           0
      2297 MEMB     17       PA       H2R      hL       0.473450E-01   1.00800           0
      2298 MEMB     17       PA       H2S      hL       0.473450E-01   1.00800           0
      2299 MEMB     17       PC       C11      cC       0.910403       12.0100           0
      2300 MEMB     17       PC       O12      oC      -0.671566       16.0000           0
      2301 MEMB     17       PC       O11      oS      -0.575489       16.0000           0
      2302 MEMB     17       PC       C1       cA       0.196939       12.0100           0
      2303 MEMB     17       PC       HR       hE       0.704690E-01   1.00800           0
      2304 MEMB     17       PC       HS       hE       0.704690E-01   1.00800           0
      2305 MEMB     17       PC       C2       cA       0.281242       12.0100           0
      2306 MEMB     17       PC       HX       hE       0.632530E-01   1.00800           0
      2307 MEMB     17       PC       C3       cA       0.174590E-01   12.0100           0
      2308 MEMB     17       PC       HA       hE       0.955910E-01   1.00800           0
      2309 MEMB     17       PC       HB       hE       0.955910E-01   1.00800           0
      2310 MEMB     17       PC       O31      oT      -0.509480       16.0000           0
      2311 MEMB     17       PC       P31      pA       1.339721       30.9700           0
      2312 MEMB     17       PC       O32      oT      -0.508176       16.0000           0
      2313 MEMB     17       PC       C31      cA       0.166801       12.0100           0
      2314 MEMB     17       PC       H1A      hE       0.785340E-01   1.00800           0
      2315 MEMB     17       PC       H1B      hE       0.785340E-01   1.00800           0
      2316 MEMB     17       PC       C32      cA      -0.170824       12.0100           0
      2317 MEMB     17       PC       H2A      hX       0.136415       1.00800           0
      2318 MEMB     17       PC       H2B      hX       0.136415       1.00800           0
      2319 MEMB     17       PC       N31      nA       0.245262       14.0100           0
      2320 MEMB     17       PC       C33      cA      -0.338973       12.0100           0
      2321 MEMB     17       PC       H3A      hX       0.172230       1.00800           0
      2322 MEMB     17       PC       H3B      hX       0.172230       1.00800           0
      2323 MEMB     17       PC       H3C      hX       0.172230       1.00800           0
      2324 MEMB     17       PC       C34      cA      -0.338973       12.0100           0
      2325 MEMB     17       PC       H4A      hX       0.172230       1.00800           0
      2326 MEMB     17       PC       H4B      hX       0.172230       1.00800           0
      2327 MEMB     17       PC       H4C      hX       0.172230       1.00800           0
      2328 MEMB     17       PC       C35      cA      -0.338973       12.0100           0
      2329 MEMB     17       PC       H5A      hX       0.172230       1.00800           0
      2330 MEMB     17       PC       H5B      hX       0.172230       1.00800           0
      2331 MEMB     17       PC       H5C      hX       0.172230       1.00800           0
      2332 MEMB     17       PC       O33      oP      -0.875812       16.0000           0
      2333 MEMB     17       PC       O34      oP      -0.875812       16.0000           0
      2334 MEMB     17       PC       O21      oS      -0.552948       16.0000           0
      2335 MEMB     17       PC       C21      cC       0.897613       12.0100           0
      2336 MEMB     17       PC       O22      oC      -0.673755       16.0000           0
      2337 MEMB     17       OL       C12      cD      -0.143418       12.0100           0
      2338 MEMB     17       OL       H2R      hL       0.428610E-01   1.00800           0
      2339 MEMB     17       OL       H2S      hL       0.428610E-01   1.00800           0
      2340 MEMB     17       OL       C13      cD       0.161900E-02   12.0100           0
      2341 MEMB     17       OL       H3R      hL       0.195290E-01   1.00800           0
      2342 MEMB     17       OL       H3S      hL       0.195290E-01   1.00800           0
      2343 MEMB     17       OL       C14      cD      -0.229600E-01   12.0100           0
      2344 MEMB     17       OL       H4R      hL       0.181340E-01   1.00800           0
      2345 MEMB     17       OL       H4S      hL       0.181340E-01   1.00800           0
      2346 MEMB     17       OL       C15      cD      -0.166920E-01   12.0100           0
      2347 MEMB     17       OL       H5R      hL       0.869000E-02   1.00800           0
      2348 MEMB     17       OL       H5S      hL       0.869000E-02   1.00800           0
      2349 MEMB     17       OL       C16      cD      -0.237890E-01   12.0100           0
      2350 MEMB     17       OL       H6R      hL       0.926600E-02   1.00800           0
      2351 MEMB     17       OL       H6S      hL       0.926600E-02   1.00800           0
      2352 MEMB     17       OL       C17      cD      -0.174950E-01   12.0100           0
      2353 MEMB     17       OL       H7R      hL       0.195980E-01   1.00800           0
      2354 MEMB     17       OL       H7S      hL       0.195980E-01   1.00800           0
      2355 MEMB     17       OL       C18      cD       0.317750E-01   12.0100           0
      2356 MEMB     17       OL       H8R      hL       0.326850E-01   1.00800           0
      2357 MEMB     17       OL       H8S      hL       0.326850E-01   1.00800           0
      2358 MEMB     17       OL       C19      cB      -0.244228       12.0100           0
      2359 MEMB     17       OL       H9R      hB       0.131512       1.00800           0
      2360 MEMB     17       OL       C110     cB      -0.239284       12.0100           0
      2361 MEMB     17       OL       H10R     hB       0.126878       1.00800           0
      2362 MEMB     17       OL       C111     cD       0.290590E-01   12.0100           0
      2363 MEMB     17       OL       H11R     hL       0.335310E-01   1.00800           0
      2364 MEMB     17       OL       H11S     hL       0.335310E-01   1.00800           0
      2365 MEMB     17       OL       C112     cD      -0.263530E-01   12.0100           0
      2366 MEMB     17       OL       H12R     hL       0.197170E-01   1.00800           0
      2367 MEMB     17       OL       H12S     hL       0.197170E-01   1.00800           0
      2368 MEMB     17       OL       C113     cD      -0.182570E-01   12.0100           0
      2369 MEMB     17       OL       H13R     hL       0.138000E-01   1.00800           0
      2370 MEMB     17       OL       H13S     hL       0.138000E-01   1.00800           0
      2371 MEMB     17       OL       C114     cD      -0.248490E-01   12.0100           0
      2372 MEMB     17       OL       H14R     hL       0.857200E-02   1.00800           0
      2373 MEMB     17       OL       H14S     hL       0.857200E-02   1.00800           0
      2374 MEMB     17       OL       C115     cD      -0.232470E-01   12.0100           0
      2375 MEMB     17       OL       H15R     hL       0.104030E-01   1.00800           0
      2376 MEMB     17       OL       H15S     hL       0.104030E-01   1.00800           0
      2377 MEMB     17       OL       C116     cD      -0.124880E-01   12.0100           0
      2378 MEMB     17       OL       H16R     hL       0.136590E-01   1.00800           0
      2379 MEMB     17       OL       H16S     hL       0.136590E-01   1.00800           0
      2380 MEMB     17       OL       C117     cD       0.868400E-02   12.0100           0
      2381 MEMB     17       OL       H17R     hL       0.100260E-01   1.00800           0
      2382 MEMB     17       OL       H17S     hL       0.100260E-01   1.00800           0
      2383 MEMB     17       OL       C118     cD      -0.117290       12.0100           0
      2384 MEMB     17       OL       H18R     hL       0.266270E-01   1.00800           0
      2385 MEMB     17       OL       H18S     hL       0.266270E-01   1.00800           0
      2386 MEMB     17       OL       H18T     hL       0.266270E-01   1.00800           0
      2387 MEMB     18       PA       C116     cD      -0.125447       12.0100           0
      2388 MEMB     18       PA       H16R     hL       0.290470E-01   1.00800           0
      2389 MEMB     18       PA       H16S     hL       0.290470E-01   1.00800           0
      2390 MEMB     18       PA       H16T     hL       0.290470E-01   1.00800           0
      2391 MEMB     18       PA       C115     cD       0.139750E-01   12.0100           0
      2392 MEMB     18       PA       H15R     hL       0.929200E-02   1.00800           0
      2393 MEMB     18       PA       H15S     hL       0.929200E-02   1.00800           0
      2394 MEMB     18       PA       C114     cD      -0.200860E-01   12.0100           0
      2395 MEMB     18       PA       H14R     hL       0.159290E-01   1.00800           0
      2396 MEMB     18       PA       H14S     hL       0.159290E-01   1.00800           0
      2397 MEMB     18       PA       C113     cD      -0.330960E-01   12.0100           0
      2398 MEMB     18       PA       H13R     hL       0.146210E-01   1.00800           0
      2399 MEMB     18       PA       H13S     hL       0.146210E-01   1.00800           0
      2400 MEMB     18       PA       C112     cD      -0.276330E-01   12.0100           0
      2401 MEMB     18       PA       H12R     hL       0.113680E-01   1.00800           0
      2402 MEMB     18       PA       H12S     hL       0.113680E-01   1.00800           0
      2403 MEMB     18       PA       C111     cD      -0.252060E-01   12.0100           0
      2404 MEMB     18       PA       H11R     hL       0.143340E-01   1.00800           0
      2405 MEMB     18       PA       H11S     hL       0.143340E-01   1.00800           0
      2406 MEMB     18       PA       C110     cD      -0.288310E-01   12.0100           0
      2407 MEMB     18       PA       H10R     hL       0.146910E-01   1.00800           0
      2408 MEMB     18       PA       H10S     hL       0.146910E-01   1.00800           0
      2409 MEMB     18       PA       C19      cD      -0.304720E-01   12.0100           0
      2410 MEMB     18       PA       H9R      hL       0.138970E-01   1.00800           0
      2411 MEMB     18       PA       H9S      hL       0.138970E-01   1.00800           0
      2412 MEMB     18       PA       C18      cD      -0.157930E-01   12.0100           0
      2413 MEMB     18       PA       H8R      hL       0.906700E-02   1.00800           0
      2414 MEMB     18       PA       H8S      hL       0.906700E-02   1.00800           0
      2415 MEMB     18       PA       C17      cD      -0.196300E-01   12.0100           0
      2416 MEMB     18       PA       H7R      hL       0.110410E-01   1.00800           0
      2417 MEMB     18       PA       H7S      hL       0.110410E-01   1.00800           0
      2418 MEMB     18       PA       C16      cD      -0.244270E-01   12.0100           0
      2419 MEMB     18       PA       H6R      hL       0.133340E-01   1.00800           0
      2420 MEMB     18       PA       H6S      hL       0.133340E-01   1.00800           0
      2421 MEMB     18       PA       C15      cD      -0.293870E-01   12.0100           0
      2422 MEMB     18       PA       H5R      hL       0.167630E-01   1.00800           0
      2423 MEMB     18       PA       H5S      hL       0.167630E-01   1.00800           0
      2424 MEMB     18       PA       C14      cD      -0.300990E-01   12.0100           0
      2425 MEMB     18       PA       H4R      hL       0.208770E-01   1.00800           0
      2426 MEMB     18       PA       H4S      hL       0.208770E-01   1.00800           0
      2427 MEMB     18       PA       C13      cD      -0.488200E-02   12.0100           0
      2428 MEMB     18       PA       H3R      hL       0.190070E-01   1.00800           0
      2429 MEMB     18       PA       H3S      hL       0.190070E-01   1.00800           0
      2430 MEMB     18       PA       C12      cD      -0.149259       12.0100           0
      2431 MEMB     18       PA       H2R      hL       0.473450E-01   1.00800           0
      2432 MEMB     18       PA       H2S      hL       0.473450E-01   1.00800           0
      2433 MEMB     18       PC       C11      cC       0.910403       12.0100           0
      2434 MEMB     18       PC       O12      oC      -0.671566       16.0000           0
      2435 MEMB     18       PC       O11      oS      -0.575489       16.0000           0
      2436 MEMB     18       PC       C1       cA       0.196939       12.0100           0
      2437 MEMB     18       PC       HR       hE       0.704690E-01   1.00800           0
      2438 MEMB     18       PC       HS       hE       0.704690E-01   1.00800           0
      2439 MEMB     18       PC       C2       cA       0.281242       12.0100           0
      2440 MEMB     18       PC       HX       hE       0.632530E-01   1.00800           0
      2441 MEMB     18       PC       C3       cA       0.174590E-01   12.0100           0
      2442 MEMB     18       PC       HA       hE       0.955910E-01   1.00800           0
      2443 MEMB     18       PC       HB       hE       0.955910E-01   1.00800           0
      2444 MEMB     18       PC       O31      oT      -0.509480       16.0000           0
      2445 MEMB     18       PC       P31      pA       1.339721       30.9700           0
      2446 MEMB     18       PC       O32      oT      -0.508176       16.0000           0
      2447 MEMB     18       PC       C31      cA       0.166801       12.0100           0
      2448 MEMB     18       PC       H1A      hE       0.785340E-01   1.00800           0
      2449 MEMB     18       PC       H1B      hE       0.785340E-01   1.00800           0
      2450 MEMB     18       PC       C32      cA      -0.170824       12.0100           0
      2451 MEMB     18       PC       H2A      hX       0.136415       1.00800           0
      2452 MEMB     18       PC       H2B      hX       0.136415       1.00800           0
      2453 MEMB     18       PC       N31      nA       0.245262       14.0100           0
      2454 MEMB     18       PC       C33      cA      -0.338973       12.0100           0
      2455 MEMB     18       PC       H3A      hX       0.172230       1.00800           0
      2456 MEMB     18       PC       H3B      hX       0.172230       1.00800           0
      2457 MEMB     18       PC       H3C      hX       0.172230       1.00800           0
      2458 MEMB     18       PC       C34      cA      -0.338973       12.0100           0
      2459 MEMB     18       PC       H4A      hX       0.172230       1.00800           0
      2460 MEMB     18       PC       H4B      hX       0.172230       1.00800           0
      2461 MEMB     18       PC       H4C      hX       0.172230       1.00800           0
      2462 MEMB     18       PC       C35      cA      -0.338973       12.0100           0
      2463 MEMB     18       PC       H5A      hX       0.172230       1.00800           0
      2464 MEMB     18       PC       H5B      hX       0.172230       1.00800           0
      2465 MEMB     18       PC       H5C      hX       0.172230       1.00800           0
      2466 MEMB     18       PC       O33      oP      -0.875812       16.0000           0
      2467 MEMB     18       PC       O34      oP      -0.875812       16.0000           0
      2468 MEMB     18       PC       O21      oS      -0.552948       16.0000           0
      2469 MEMB     18       PC       C21      cC       0.897613       12.0100           0
      2470 MEMB     18       PC       O22      oC      -0.673755       16.0000           0
      2471 MEMB     18       OL       C12      cD      -0.143418       12.0100           0
      2472 MEMB     18       OL       H2R      hL       0.428610E-01   1.00800           0
      2473 MEMB     18       OL       H2S      hL       0.428610E-01   1.00800           0
      2474 MEMB     18       OL       C13      cD       0.161900E-02   12.0100           0
      2475 MEMB     18       OL       H3R      hL       0.195290E-01   1.00800           0
      2476 MEMB     18       OL       H3S      hL       0.195290E-01   1.00800           0
      2477 MEMB     18       OL       C14      cD      -0.229600E-01   12.0100           0
      2478 MEMB     18       OL       H4R      hL       0.181340E-01   1.00800           0
      2479 MEMB     18       OL       H4S      hL       0.181340E-01   1.00800           0
      2480 MEMB     18       OL       C15      cD      -0.166920E-01   12.0100           0
      2481 MEMB     18       OL       H5R      hL       0.869000E-02   1.00800           0
      2482 MEMB     18       OL       H5S      hL       0.869000E-02   1.00800           0
      2483 MEMB     18       OL       C16      cD      -0.237890E-01   12.0100           0
      2484 MEMB     18       OL       H6R      hL       0.926600E-02   1.00800           0
      2485 MEMB     18       OL       H6S      hL       0.926600E-02   1.00800           0
      2486 MEMB     18       OL       C17      cD      -0.174950E-01   12.0100           0
      2487 MEMB     18       OL       H7R      hL       0.195980E-01   1.00800           0
      2488 MEMB     18       OL       H7S      hL       0.195980E-01   1.00800           0
      2489 MEMB     18       OL       C18      cD       0.317750E-01   12.0100           0
      2490 MEMB     18       OL       H8R      hL       0.326850E-01   1.00800           0
      2491 MEMB     18       OL       H8S      hL       0.326850E-01   1.00800           0
      2492 MEMB     18       OL       C19      cB      -0.244228       12.0100           0
      2493 MEMB     18       OL       H9R      hB       0.131512       1.00800           0
      2494 MEMB     18       OL       C110     cB      -0.239284       12.0100           0
      2495 MEMB     18       OL       H10R     hB       0.126878       1.00800           0
      2496 MEMB     18       OL       C111     cD       0.290590E-01   12.0100           0
      2497 MEMB     18       OL       H11R     hL       0.335310E-01   1.00800           0
      2498 MEMB     18       OL       H11S     hL       0.335310E-01   1.00800           0
      2499 MEMB     18       OL       C112     cD      -0.263530E-01   12.0100           0
      2500 MEMB     18       OL       H12R     hL       0.197170E-01   1.00800           0
      2501 MEMB     18       OL       H12S     hL       0.197170E-01   1.00800           0
      2502 MEMB     18       OL       C113     cD      -0.182570E-01   12.0100           0
      2503 MEMB     18       OL       H13R     hL       0.138000E-01   1.00800           0
      2504 MEMB     18       OL       H13S     hL       0.138000E-01   1.00800           0
      2505 MEMB     18       OL       C114     cD      -0.248490E-01   12.0100           0
      2506 MEMB     18       OL       H14R     hL       0.857200E-02   1.00800           0
      2507 MEMB     18       OL       H14S     hL       0.857200E-02   1.00800           0
      2508 MEMB     18       OL       C115     cD      -0.232470E-01   12.0100           0
      2509 MEMB     18       OL       H15R     hL       0.104030E-01   1.00800           0
      2510 MEMB     18       OL       H15S     hL       0.104030E-01   1.00800           0
      2511 MEMB     18       OL       C116     cD      -0.124880E-01   12.0100           0
      2512 MEMB     18       OL       H16R     hL       0.136590E-01   1.00800           0
      2513 MEMB     18       OL       H16S     hL       0.136590E-01   1.00800           0
      2514 MEMB     18       OL       C117     cD       0.868400E-02   12.0100           0
      2515 MEMB     18       OL       H17R     hL       0.100260E-01   1.00800           0
      2516 MEMB     18       OL       H17S     hL       0.100260E-01   1.00800           0
      2517 MEMB     18       OL       C118     cD      -0.117290       12.0100           0
      2518 MEMB     18       OL       H18R     hL       0.266270E-01   1.00800           0
      2519 MEMB     18       OL       H18S     hL       0.266270E-01   1.00800           0
      2520 MEMB     18       OL       H18T     hL       0.266270E-01   1.00800           0
      2521 MEMB     19       PA       C116     cD      -0.125447       12.0100           0
      2522 MEMB     19       PA       H16R     hL       0.290470E-01   1.00800           0
      2523 MEMB     19       PA       H16S     hL       0.290470E-01   1.00800           0
      2524 MEMB     19       PA       H16T     hL       0.290470E-01   1.00800           0
      2525 MEMB     19       PA       C115     cD       0.139750E-01   12.0100           0
      2526 MEMB     19       PA       H15R     hL       0.929200E-02   1.00800           0
      2527 MEMB     19       PA       H15S     hL       0.929200E-02   1.00800           0
      2528 MEMB     19       PA       C114     cD      -0.200860E-01   12.0100           0
      2529 MEMB     19       PA       H14R     hL       0.159290E-01   1.00800           0
      2530 MEMB     19       PA       H14S     hL       0.159290E-01   1.00800           0
      2531 MEMB     19       PA       C113     cD      -0.330960E-01   12.0100           0
      2532 MEMB     19       PA       H13R     hL       0.146210E-01   1.00800           0
      2533 MEMB     19       PA       H13S     hL       0.146210E-01   1.00800           0
      2534 MEMB     19       PA       C112     cD      -0.276330E-01   12.0100           0
      2535 MEMB     19       PA       H12R     hL       0.113680E-01   1.00800           0
      2536 MEMB     19       PA       H12S     hL       0.113680E-01   1.00800           0
      2537 MEMB     19       PA       C111     cD      -0.252060E-01   12.0100           0
      2538 MEMB     19       PA       H11R     hL       0.143340E-01   1.00800           0
      2539 MEMB     19       PA       H11S     hL       0.143340E-01   1.00800           0
      2540 MEMB     19       PA       C110     cD      -0.288310E-01   12.0100           0
      2541 MEMB     19       PA       H10R     hL       0.146910E-01   1.00800           0
      2542 MEMB     19       PA       H10S     hL       0.146910E-01   1.00800           0
      2543 MEMB     19       PA       C19      cD      -0.304720E-01   12.0100           0
      2544 MEMB     19       PA       H9R      hL       0.138970E-01   1.00800           0
      2545 MEMB     19       PA       H9S      hL       0.138970E-01   1.00800           0
      2546 MEMB     19       PA       C18      cD      -0.157930E-01   12.0100           0
      2547 MEMB     19       PA       H8R      hL       0.906700E-02   1.00800           0
      2548 MEMB     19       PA       H8S      hL       0.906700E-02   1.00800           0
      2549 MEMB     19       PA       C17      cD      -0.196300E-01   12.0100           0
      2550 MEMB     19       PA       H7R      hL       0.110410E-01   1.00800           0
      2551 MEMB     19       PA       H7S      hL       0.110410E-01   1.00800           0
      2552 MEMB     19       PA       C16      cD      -0.244270E-01   12.0100           0
      2553 MEMB     19       PA       H6R      hL       0.133340E-01   1.00800           0
      2554 MEMB     19       PA       H6S      hL       0.133340E-01   1.00800           0
      2555 MEMB     19       PA       C15      cD      -0.293870E-01   12.0100           0
      2556 MEMB     19       PA       H5R      hL       0.167630E-01   1.00800           0
      2557 MEMB     19       PA       H5S      hL       0.167630E-01   1.00800           0
      2558 MEMB     19       PA       C14      cD      -0.300990E-01   12.0100           0
      2559 MEMB     19       PA       H4R      hL       0.208770E-01   1.00800           0
      2560 MEMB     19       PA       H4S      hL       0.208770E-01   1.00800           0
      2561 MEMB     19       PA       C13      cD      -0.488200E-02   12.0100           0
      2562 MEMB     19       PA       H3R      hL       0.190070E-01   1.00800           0
      2563 MEMB     19       PA       H3S      hL       0.190070E-01   1.00800           0
      2564 MEMB     19       PA       C12      cD      -0.149259       12.0100           0
      2565 MEMB     19       PA       H2R      hL       0.473450E-01   1.00800           0
      2566 MEMB     19       PA       H2S      hL       0.473450E-01   1.00800           0
      2567 MEMB     19       PC       C11      cC       0.910403       12.0100           0
      2568 MEMB     19       PC       O12      oC      -0.671566       16.0000           0
      2569 MEMB     19       PC       O11      oS      -0.575489       16.0000           0
      2570 MEMB     19       PC       C1       cA       0.196939       12.0100           0
      2571 MEMB     19       PC       HR       hE       0.704690E-01   1.00800           0
      2572 MEMB     19       PC       HS       hE       0.704690E-01   1.00800           0
      2573 MEMB     19       PC       C2       cA       0.281242       12.0100           0
      2574 MEMB     19       PC       HX       hE       0.632530E-01   1.00800           0
      2575 MEMB     19       PC       C3       cA       0.174590E-01   12.0100           0
      2576 MEMB     19       PC       HA       hE       0.955910E-01   1.00800           0
      2577 MEMB     19       PC       HB       hE       0.955910E-01   1.00800           0
      2578 MEMB     19       PC       O31      oT      -0.509480       16.0000           0
      2579 MEMB     19       PC       P31      pA       1.339721       30.9700           0
      2580 MEMB     19       PC       O32      oT      -0.508176       16.0000           0
      2581 MEMB     19       PC       C31      cA       0.166801       12.0100           0
      2582 MEMB     19       PC       H1A      hE       0.785340E-01   1.00800           0
      2583 MEMB     19       PC       H1B      hE       0.785340E-01   1.00800           0
      2584 MEMB     19       PC       C32      cA      -0.170824       12.0100           0
      2585 MEMB     19       PC       H2A      hX       0.136415       1.00800           0
      2586 MEMB     19       PC       H2B      hX       0.136415       1.00800           0
      2587 MEMB     19       PC       N31      nA       0.245262       14.0100           0
      2588 MEMB     19       PC       C33      cA      -0.338973       12.0100           0
      2589 MEMB     19       PC       H3A      hX       0.172230       1.00800           0
      2590 MEMB     19       PC       H3B      hX       0.172230       1.00800           0
      2591 MEMB     19       PC       H3C      hX       0.172230       1.00800           0
      2592 MEMB     19       PC       C34      cA      -0.338973       12.0100           0
      2593 MEMB     19       PC       H4A      hX       0.172230       1.00800           0
      2594 MEMB     19       PC       H4B      hX       0.172230       1.00800           0
      2595 MEMB     19       PC       H4C      hX       0.172230       1.00800           0
      2596 MEMB     19       PC       C35      cA      -0.338973       12.0100           0
      2597 MEMB     19       PC       H5A      hX       0.172230       1.00800           0
      2598 MEMB     19       PC       H5B      hX       0.172230       1.00800           0
      2599 MEMB     19       PC       H5C      hX       0.172230       1.00800           0
      2600 MEMB     19       PC       O33      oP      -0.875812       16.0000           0
      2601 MEMB     19       PC       O34      oP      -0.875812       16.0000           0
      2602 MEMB     19       PC       O21      oS      -0.552948       16.0000           0
      2603 MEMB     19       PC       C21      cC       0.897613       12.0100           0
      2604 MEMB     19       PC       O22      oC      -0.673755       16.0000           0
      2605 MEMB     19       OL       C12      cD      -0.143418       12.0100           0
      2606 MEMB     19       OL       H2R      hL       0.428610E-01   1.00800           0
      2607 MEMB     19       OL       H2S      hL       0.428610E-01   1.00800           0
      2608 MEMB     19       OL       C13      cD       0.161900E-02   12.0100           0
      2609 MEMB     19       OL       H3R      hL       0.195290E-01   1.00800           0
      2610 MEMB     19       OL       H3S      hL       0.195290E-01   1.00800           0
      2611 MEMB     19       OL       C14      cD      -0.229600E-01   12.0100           0
      2612 MEMB     19       OL       H4R      hL       0.181340E-01   1.00800           0
      2613 MEMB     19       OL       H4S      hL       0.181340E-01   1.00800           0
      2614 MEMB     19       OL       C15      cD      -0.166920E-01   12.0100           0
      2615 MEMB     19       OL       H5R      hL       0.869000E-02   1.00800           0
      2616 MEMB     19       OL       H5S      hL       0.869000E-02   1.00800           0
      2617 MEMB     19       OL       C16      cD      -0.237890E-01   12.0100           0
      2618 MEMB     19       OL       H6R      hL       0.926600E-02   1.00800           0
      2619 MEMB     19       OL       H6S      hL       0.926600E-02   1.00800           0
      2620 MEMB     19       OL       C17      cD      -0.174950E-01   12.0100           0
      2621 MEMB     19       OL       H7R      hL       0.195980E-01   1.00800           0
      2622 MEMB     19       OL       H7S      hL       0.195980E-01   1.00800           0
      2623 MEMB     19       OL       C18      cD       0.317750E-01   12.0100           0
      2624 MEMB     19       OL       H8R      hL       0.326850E-01   1.00800           0
      2625 MEMB     19       OL       H8S      hL       0.326850E-01   1.00800           0
      2626 MEMB     19       OL       C19      cB      -0.244228       12.0100           0
      2627 MEMB     19       OL       H9R      hB       0.131512       1.00800           0
      2628 MEMB     19       OL       C110     cB      -0.239284       12.0100           0
      2629 MEMB     19       OL       H10R     hB       0.126878       1.00800           0
      2630 MEMB     19       OL       C111     cD       0.290590E-01   12.0100           0
      2631 MEMB     19       OL       H11R     hL       0.335310E-01   1.00800           0
      2632 MEMB     19       OL       H11S     hL       0.335310E-01   1.00800           0
      2633 MEMB     19       OL       C112     cD      -0.263530E-01   12.0100           0
      2634 MEMB     19       OL       H12R     hL       0.197170E-01   1.00800           0
      2635 MEMB     19       OL       H12S     hL       0.197170E-01   1.00800           0
      2636 MEMB     19       OL       C113     cD      -0.182570E-01   12.0100           0
      2637 MEMB     19       OL       H13R     hL       0.138000E-01   1.00800           0
      2638 MEMB     19       OL       H13S     hL       0.138000E-01   1.00800           0
      2639 MEMB     19       OL       C114     cD      -0.248490E-01   12.0100           0
      2640 MEMB     19       OL       H14R     hL       0.857200E-02   1.00800           0
      2641 MEMB     19       OL       H14S     hL       0.857200E-02   1.00800           0
      2642 MEMB     19       OL       C115     cD      -0.232470E-01   12.0100           0
      2643 MEMB     19       OL       H15R     hL       0.104030E-01   1.00800           0
      2644 MEMB     19       OL       H15S     hL       0.104030E-01   1.00800           0
      2645 MEMB     19       OL       C116     cD      -0.124880E-01   12.0100           0
      2646 MEMB     19       OL       H16R     hL       0.136590E-01   1.00800           0
      2647 MEMB     19       OL       H16S     hL       0.136590E-01   1.00800           0
      2648 MEMB     19       OL       C117     cD       0.868400E-02   12.0100           0
      2649 MEMB     19       OL       H17R     hL       0.100260E-01   1.00800           0
      2650 MEMB     19       OL       H17S     hL       0.100260E-01   1.00800           0
      2651 MEMB     19       OL       C118     cD      -0.117290       12.0100           0
      2652 MEMB     19       OL       H18R     hL       0.266270E-01   1.00800           0
      2653 MEMB     19       OL       H18S     hL       0.266270E-01   1.00800           0
      2654 MEMB     19       OL       H18T     hL       0.266270E-01   1.00800           0
      2655 MEMB     20       PA       C116     cD      -0.125447       12.0100           0
      2656 MEMB     20       PA       H16R     hL       0.290470E-01   1.00800           0
      2657 MEMB     20       PA       H16S     hL       0.290470E-01   1.00800           0
      2658 MEMB     20       PA       H16T     hL       0.290470E-01   1.00800           0
      2659 MEMB     20       PA       C115     cD       0.139750E-01   12.0100           0
      2660 MEMB     20       PA       H15R     hL       0.929200E-02   1.00800           0
      2661 MEMB     20       PA       H15S     hL       0.929200E-02   1.00800           0
      2662 MEMB     20       PA       C114     cD      -0.200860E-01   12.0100           0
      2663 MEMB     20       PA       H14R     hL       0.159290E-01   1.00800           0
      2664 MEMB     20       PA       H14S     hL       0.159290E-01   1.00800           0
      2665 MEMB     20       PA       C113     cD      -0.330960E-01   12.0100           0
      2666 MEMB     20       PA       H13R     hL       0.146210E-01   1.00800           0
      2667 MEMB     20       PA       H13S     hL       0.146210E-01   1.00800           0
      2668 MEMB     20       PA       C112     cD      -0.276330E-01   12.0100           0
      2669 MEMB     20       PA       H12R     hL       0.113680E-01   1.00800           0
      2670 MEMB     20       PA       H12S     hL       0.113680E-01   1.00800           0
      2671 MEMB     20       PA       C111     cD      -0.252060E-01   12.0100           0
      2672 MEMB     20       PA       H11R     hL       0.143340E-01   1.00800           0
      2673 MEMB     20       PA       H11S     hL       0.143340E-01   1.00800           0
      2674 MEMB     20       PA       C110     cD      -0.288310E-01   12.0100           0
      2675 MEMB     20       PA       H10R     hL       0.146910E-01   1.00800           0
      2676 MEMB     20       PA       H10S     hL       0.146910E-01   1.00800           0
      2677 MEMB     20       PA       C19      cD      -0.304720E-01   12.0100           0
      2678 MEMB     20       PA       H9R      hL       0.138970E-01   1.00800           0
      2679 MEMB     20       PA       H9S      hL       0.138970E-01   1.00800           0
      2680 MEMB     20       PA       C18      cD      -0.157930E-01   12.0100           0
      2681 MEMB     20       PA       H8R      hL       0.906700E-02   1.00800           0
      2682 MEMB     20       PA       H8S      hL       0.906700E-02   1.00800           0
      2683 MEMB     20       PA       C17      cD      -0.196300E-01   12.0100           0
      2684 MEMB     20       PA       H7R      hL       0.110410E-01   1.00800           0
      2685 MEMB     20       PA       H7S      hL       0.110410E-01   1.00800           0
      2686 MEMB     20       PA       C16      cD      -0.244270E-01   12.0100           0
      2687 MEMB     20       PA       H6R      hL       0.133340E-01   1.00800           0
      2688 MEMB     20       PA       H6S      hL       0.133340E-01   1.00800           0
      2689 MEMB     20       PA       C15      cD      -0.293870E-01   12.0100           0
      2690 MEMB     20       PA       H5R      hL       0.167630E-01   1.00800           0
      2691 MEMB     20       PA       H5S      hL       0.167630E-01   1.00800           0
      2692 MEMB     20       PA       C14      cD      -0.300990E-01   12.0100           0
      2693 MEMB     20       PA       H4R      hL       0.208770E-01   1.00800           0
      2694 MEMB     20       PA       H4S      hL       0.208770E-01   1.00800           0
      2695 MEMB     20       PA       C13      cD      -0.488200E-02   12.0100           0
      2696 MEMB     20       PA       H3R      hL       0.190070E-01   1.00800           0
      2697 MEMB     20       PA       H3S      hL       0.190070E-01   1.00800           0
      2698 MEMB     20       PA       C12      cD      -0.149259       12.0100           0
      2699 MEMB     20       PA       H2R      hL       0.473450E-01   1.00800           0
      2700 MEMB     20       PA       H2S      hL       0.473450E-01   1.00800           0
      2701 MEMB     20       PC       C11      cC       0.910403       12.0100           0
      2702 MEMB     20       PC       O12      oC      -0.671566       16.0000           0
      2703 MEMB     20       PC       O11      oS      -0.575489       16.0000           0
      2704 MEMB     20       PC       C1       cA       0.196939       12.0100           0
      2705 MEMB     20       PC       HR       hE       0.704690E-01   1.00800           0
      2706 MEMB     20       PC       HS       hE       0.704690E-01   1.00800           0
      2707 MEMB     20       PC       C2       cA       0.281242       12.0100           0
      2708 MEMB     20       PC       HX       hE       0.632530E-01   1.00800           0
      2709 MEMB     20       PC       C3       cA       0.174590E-01   12.0100           0
      2710 MEMB     20       PC       HA       hE       0.955910E-01   1.00800           0
      2711 MEMB     20       PC       HB       hE       0.955910E-01   1.00800           0
      2712 MEMB     20       PC       O31      oT      -0.509480       16.0000           0
      2713 MEMB     20       PC       P31      pA       1.339721       30.9700           0
      2714 MEMB     20       PC       O32      oT      -0.508176       16.0000           0
      2715 MEMB     20       PC       C31      cA       0.166801       12.0100           0
      2716 MEMB     20       PC       H1A      hE       0.785340E-01   1.00800           0
      2717 MEMB     20       PC       H1B      hE       0.785340E-01   1.00800           0
      2718 MEMB     20       PC       C32      cA      -0.170824       12.0100           0
      2719 MEMB     20       PC       H2A      hX       0.136415       1.00800           0
      2720 MEMB     20       PC       H2B      hX       0.136415       1.00800           0
      2721 MEMB     20       PC       N31      nA       0.245262       14.0100           0
      2722 MEMB     20       PC       C33      cA      -0.338973       12.0100           0
      2723 MEMB     20       PC       H3A      hX       0.172230       1.00800           0
      2724 MEMB     20       PC       H3B      hX       0.172230       1.00800           0
      2725 MEMB     20       PC       H3C      hX       0.172230       1.00800           0
      2726 MEMB     20       PC       C34      cA      -0.338973       12.0100           0
      2727 MEMB     20       PC       H4A      hX       0.172230       1.00800           0
      2728 MEMB     20       PC       H4B      hX       0.172230       1.00800           0
      2729 MEMB     20       PC       H4C      hX       0.172230       1.00800           0
      2730 MEMB     20       PC       C35      cA      -0.338973       12.0100           0
      2731 MEMB     20       PC       H5A      hX       0.172230       1.00800           0
      2732 MEMB     20       PC       H5B      hX       0.172230       1.00800           0
      2733 MEMB     20       PC       H5C      hX       0.172230       1.00800           0
      2734 MEMB     20       PC       O33      oP      -0.875812       16.0000           0
      2735 MEMB     20       PC       O34      oP      -0.875812       16.0000           0
      2736 MEMB     20       PC       O21      oS      -0.552948       16.0000           0
      2737 MEMB     20       PC       C21      cC       0.897613       12.0100           0
      2738 MEMB     20       PC       O22      oC      -0.673755       16.0000           0
      2739 MEMB     20       OL       C12      cD      -0.143418       12.0100           0
      2740 MEMB     20       OL       H2R      hL       0.428610E-01   1.00800           0
      2741 MEMB     20       OL       H2S      hL       0.428610E-01   1.00800           0
      2742 MEMB     20       OL       C13      cD       0.161900E-02   12.0100           0
      2743 MEMB     20       OL       H3R      hL       0.195290E-01   1.00800           0
      2744 MEMB     20       OL       H3S      hL       0.195290E-01   1.00800           0
      2745 MEMB     20       OL       C14      cD      -0.229600E-01   12.0100           0
      2746 MEMB     20       OL       H4R      hL       0.181340E-01   1.00800           0
      2747 MEMB     20       OL       H4S      hL       0.181340E-01   1.00800           0
      2748 MEMB     20       OL       C15      cD      -0.166920E-01   12.0100           0
      2749 MEMB     20       OL       H5R      hL       0.869000E-02   1.00800           0
      2750 MEMB     20       OL       H5S      hL       0.869000E-02   1.00800           0
      2751 MEMB     20       OL       C16      cD      -0.237890E-01   12.0100           0
      2752 MEMB     20       OL       H6R      hL       0.926600E-02   1.00800           0
      2753 MEMB     20       OL       H6S      hL       0.926600E-02   1.00800           0
      2754 MEMB     20       OL       C17      cD      -0.174950E-01   12.0100           0
      2755 MEMB     20       OL       H7R      hL       0.195980E-01   1.00800           0
      2756 MEMB     20       OL       H7S      hL       0.195980E-01   1.00800           0
      2757 MEMB     20       OL       C18      cD       0.317750E-01   12.0100           0
      2758 MEMB     20       OL       H8R      hL       0.326850E-01   1.00800           0
      2759 MEMB     20       OL       H8S      hL       0.326850E-01   1.00800           0
      2760 MEMB     20       OL       C19      cB      -0.244228       12.0100           0
      2761 MEMB     20       OL       H9R      hB       0.131512       1.00800           0
      2762 MEMB     20       OL       C110     cB      -0.239284       12.0100           0
      2763 MEMB     20       OL       H10R     hB       0.126878       1.00800           0
      2764 MEMB     20       OL       C111     cD       0.290590E-01   12.0100           0
      2765 MEMB     20       OL       H11R     hL       0.335310E-01   1.00800           0
      2766 MEMB     20       OL       H11S     hL       0.335310E-01   1.00800           0
      2767 MEMB     20       OL       C112     cD      -0.263530E-01   12.0100           0
      2768 MEMB     20       OL       H12R     hL       0.197170E-01   1.00800           0
      2769 MEMB     20       OL       H12S     hL       0.197170E-01   1.00800           0
      2770 MEMB     20       OL       C113     cD      -0.182570E-01   12.0100           0
      2771 MEMB     20       OL       H13R     hL       0.138000E-01   1.00800           0
      2772 MEMB     20       OL       H13S     hL       0.138000E-01   1.00800           0
      2773 MEMB     20       OL       C114     cD      -0.248490E-01   12.0100           0
      2774 MEMB     20       OL       H14R     hL       0.857200E-02   1.00800           0
      2775 MEMB     20       OL       H14S     hL       0.857200E-02   1.00800           0
      2776 MEMB     20       OL       C115     cD      -0.232470E-01   12.0100           0
      2777 MEMB     20       OL       H15R     hL       0.104030E-01   1.00800           0
      2778 MEMB     20       OL       H15S     hL       0.104030E-01   1.00800           0
      2779 MEMB     20       OL       C116     cD      -0.124880E-01   12.0100           0
      2780 MEMB     20       OL       H16R     hL       0.136590E-01   1.00800           0
      2781 MEMB     20       OL       H16S     hL       0.136590E-01   1.00800           0
      2782 MEMB     20       OL       C117     cD       0.868400E-02   12.0100           0
      2783 MEMB     20       OL       H17R     hL       0.100260E-01   1.00800           0
      2784 MEMB     20       OL       H17S     hL       0.100260E-01   1.00800           0
      2785 MEMB     20       OL       C118     cD      -0.117290       12.0100           0
      2786 MEMB     20       OL       H18R     hL       0.266270E-01   1.00800           0
      2787 MEMB     20       OL       H18S     hL       0.266270E-01   1.00800           0
      2788 MEMB     20       OL       H18T     hL       0.266270E-01   1.00800           0
      2789 MEMB     21       PA       C116     cD      -0.125447       12.0100           0
      2790 MEMB     21       PA       H16R     hL       0.290470E-01   1.00800           0
      2791 MEMB     21       PA       H16S     hL       0.290470E-01   1.00800           0
      2792 MEMB     21       PA       H16T     hL       0.290470E-01   1.00800           0
      2793 MEMB     21       PA       C115     cD       0.139750E-01   12.0100           0
      2794 MEMB     21       PA       H15R     hL       0.929200E-02   1.00800           0
      2795 MEMB     21       PA       H15S     hL       0.929200E-02   1.00800           0
      2796 MEMB     21       PA       C114     cD      -0.200860E-01   12.0100           0
      2797 MEMB     21       PA       H14R     hL       0.159290E-01   1.00800           0
      2798 MEMB     21       PA       H14S     hL       0.159290E-01   1.00800           0
      2799 MEMB     21       PA       C113     cD      -0.330960E-01   12.0100           0
      2800 MEMB     21       PA       H13R     hL       0.146210E-01   1.00800           0
      2801 MEMB     21       PA       H13S     hL       0.146210E-01   1.00800           0
      2802 MEMB     21       PA       C112     cD      -0.276330E-01   12.0100           0
      2803 MEMB     21       PA       H12R     hL       0.113680E-01   1.00800           0
      2804 MEMB     21       PA       H12S     hL       0.113680E-01   1.00800           0
      2805 MEMB     21       PA       C111     cD      -0.252060E-01   12.0100           0
      2806 MEMB     21       PA       H11R     hL       0.143340E-01   1.00800           0
      2807 MEMB     21       PA       H11S     hL       0.143340E-01   1.00800           0
      2808 MEMB     21       PA       C110     cD      -0.288310E-01   12.0100           0
      2809 MEMB     21       PA       H10R     hL       0.146910E-01   1.00800           0
      2810 MEMB     21       PA       H10S     hL       0.146910E-01   1.00800           0
      2811 MEMB     21       PA       C19      cD      -0.304720E-01   12.0100           0
      2812 MEMB     21       PA       H9R      hL       0.138970E-01   1.00800           0
      2813 MEMB     21       PA       H9S      hL       0.138970E-01   1.00800           0
      2814 MEMB     21       PA       C18      cD      -0.157930E-01   12.0100           0
      2815 MEMB     21       PA       H8R      hL       0.906700E-02   1.00800           0
      2816 MEMB     21       PA       H8S      hL       0.906700E-02   1.00800           0
      2817 MEMB     21       PA       C17      cD      -0.196300E-01   12.0100           0
      2818 MEMB     21       PA       H7R      hL       0.110410E-01   1.00800           0
      2819 MEMB     21       PA       H7S      hL       0.110410E-01   1.00800           0
      2820 MEMB     21       PA       C16      cD      -0.244270E-01   12.0100           0
      2821 MEMB     21       PA       H6R      hL       0.133340E-01   1.00800           0
      2822 MEMB     21       PA       H6S      hL       0.133340E-01   1.00800           0
      2823 MEMB     21       PA       C15      cD      -0.293870E-01   12.0100           0
      2824 MEMB     21       PA       H5R      hL       0.167630E-01   1.00800           0
      2825 MEMB     21       PA       H5S      hL       0.167630E-01   1.00800           0
      2826 MEMB     21       PA       C14      cD      -0.300990E-01   12.0100           0
      2827 MEMB     21       PA       H4R      hL       0.208770E-01   1.00800           0
      2828 MEMB     21       PA       H4S      hL       0.208770E-01   1.00800           0
      2829 MEMB     21       PA       C13      cD      -0.488200E-02   12.0100           0
      2830 MEMB     21       PA       H3R      hL       0.190070E-01   1.00800           0
      2831 MEMB     21       PA       H3S      hL       0.190070E-01   1.00800           0
      2832 MEMB     21       PA       C12      cD      -0.149259       12.0100           0
      2833 MEMB     21       PA       H2R      hL       0.473450E-01   1.00800           0
      2834 MEMB     21       PA       H2S      hL       0.473450E-01   1.00800           0
      2835 MEMB     21       PC       C11      cC       0.910403       12.0100           0
      2836 MEMB     21       PC       O12      oC      -0.671566       16.0000           0
      2837 MEMB     21       PC       O11      oS      -0.575489       16.0000           0
      2838 MEMB     21       PC       C1       cA       0.196939       12.0100           0
      2839 MEMB     21       PC       HR       hE       0.704690E-01   1.00800           0
      2840 MEMB     21       PC       HS       hE       0.704690E-01   1.00800           0
      2841 MEMB     21       PC       C2       cA       0.281242       12.0100           0
      2842 MEMB     21       PC       HX       hE       0.632530E-01   1.00800           0
      2843 MEMB     21       PC       C3       cA       0.174590E-01   12.0100           0
      2844 MEMB     21       PC       HA       hE       0.955910E-01   1.00800           0
      2845 MEMB     21       PC       HB       hE       0.955910E-01   1.00800           0
      2846 MEMB     21       PC       O31      oT      -0.509480       16.0000           0
      2847 MEMB     21       PC       P31      pA       1.339721       30.9700           0
      2848 MEMB     21       PC       O32      oT      -0.508176       16.0000           0
      2849 MEMB     21       PC       C31      cA       0.166801       12.0100           0
      2850 MEMB     21       PC       H1A      hE       0.785340E-01   1.00800           0
      2851 MEMB     21       PC       H1B      hE       0.785340E-01   1.00800           0
      2852 MEMB     21       PC       C32      cA      -0.170824       12.0100           0
      2853 MEMB     21       PC       H2A      hX       0.136415       1.00800           0
      2854 MEMB     21       PC       H2B      hX       0.136415       1.00800           0
      2855 MEMB     21       PC       N31      nA       0.245262       14.0100           0
      2856 MEMB     21       PC       C33      cA      -0.338973       12.0100           0
      2857 MEMB     21       PC       H3A      hX       0.172230       1.00800           0
      2858 MEMB     21       PC       H3B      hX       0.172230       1.00800           0
      2859 MEMB     21       PC       H3C      hX       0.172230       1.00800           0
      2860 MEMB     21       PC       C34      cA      -0.338973       12.0100           0
      2861 MEMB     21       PC       H4A      hX       0.172230       1.00800           0
      2862 MEMB     21       PC       H4B      hX       0.172230       1.00800           0
      2863 MEMB     21       PC       H4C      hX       0.172230       1.00800           0
      2864 MEMB     21       PC       C35      cA      -0.338973       12.0100           0
      2865 MEMB     21       PC       H5A      hX       0.172230       1.00800           0
      2866 MEMB     21       PC       H5B      hX       0.172230       1.00800           0
      2867 MEMB     21       PC       H5C      hX       0.172230       1.00800           0
      2868 MEMB     21       PC       O33      oP      -0.875812       16.0000           0
      2869 MEMB     21       PC       O34      oP      -0.875812       16.0000           0
      2870 MEMB     21       PC       O21      oS      -0.552948       16.0000           0
      2871 MEMB     21       PC       C21      cC       0.897613       12.0100           0
      2872 MEMB     21       PC       O22      oC      -0.673755       16.0000           0
      2873 MEMB     21       OL       C12      cD      -0.143418       12.0100           0
      2874 MEMB     21       OL       H2R      hL       0.428610E-01   1.00800           0
      2875 MEMB     21       OL       H2S      hL       0.428610E-01   1.00800           0
      2876 MEMB     21       OL       C13      cD       0.161900E-02   12.0100           0
      2877 MEMB     21       OL       H3R      hL       0.195290E-01   1.00800           0
      2878 MEMB     21       OL       H3S      hL       0.195290E-01   1.00800           0
      2879 MEMB     21       OL       C14      cD      -0.229600E-01   12.0100           0
      2880 MEMB     21       OL       H4R      hL       0.181340E-01   1.00800           0
      2881 MEMB     21       OL       H4S      hL       0.181340E-01   1.00800           0
      2882 MEMB     21       OL       C15      cD      -0.166920E-01   12.0100           0
      2883 MEMB     21       OL       H5R      hL       0.869000E-02   1.00800           0
      2884 MEMB     21       OL       H5S      hL       0.869000E-02   1.00800           0
      2885 MEMB     21       OL       C16      cD      -0.237890E-01   12.0100           0
      2886 MEMB     21       OL       H6R      hL       0.926600E-02   1.00800           0
      2887 MEMB     21       OL       H6S      hL       0.926600E-02   1.00800           0
      2888 MEMB     21       OL       C17      cD      -0.174950E-01   12.0100           0
      2889 MEMB     21       OL       H7R      hL       0.195980E-01   1.00800           0
      2890 MEMB     21       OL       H7S      hL       0.195980E-01   1.00800           0
      2891 MEMB     21       OL       C18      cD       0.317750E-01   12.0100           0
      2892 MEMB     21       OL       H8R      hL       0.326850E-01   1.00800           0
      2893 MEMB     21       OL       H8S      hL       0.326850E-01   1.00800           0
      2894 MEMB     21       OL       C19      cB      -0.244228       12.0100           0
      2895 MEMB     21       OL       H9R      hB       0.131512       1.00800           0
      2896 MEMB     21       OL       C110     cB      -0.239284       12.0100           0
      2897 MEMB     21       OL       H10R     hB       0.126878       1.00800           0
      2898 MEMB     21       OL       C111     cD       0.290590E-01   12.0100           0
      2899 MEMB     21       OL       H11R     hL       0.335310E-01   1.00800           0
      2900 MEMB     21       OL       H11S     hL       0.335310E-01   1.00800           0
      2901 MEMB     21       OL       C112     cD      -0.263530E-01   12.0100           0
      2902 MEMB     21       OL       H12R     hL       0.197170E-01   1.00800           0
      2903 MEMB     21       OL       H12S     hL       0.197170E-01   1.00800           0
      2904 MEMB     21       OL       C113     cD      -0.182570E-01   12.0100           0
      2905 MEMB     21       OL       H13R     hL       0.138000E-01   1.00800           0
      2906 MEMB     21       OL       H13S     hL       0.138000E-01   1.00800           0
      2907 MEMB     21       OL       C114     cD      -0.248490E-01   12.0100           0
      2908 MEMB     21       OL       H14R     hL       0.857200E-02   1.00800           0
      2909 MEMB     21       OL       H14S     hL       0.857200E-02   1.00800           0
      2910 MEMB     21       OL       C115     cD      -0.232470E-01   12.0100           0
      2911 MEMB     21       OL       H15R     hL       0.104030E-01   1.00800           0
      2912 MEMB     21       OL       H15S     hL       0.104030E-01   1.00800           0
      2913 MEMB     21       OL       C116     cD      -0.124880E-01   12.0100           0
      2914 MEMB     21       OL       H16R     hL       0.136590E-01   1.00800           0
      2915 MEMB     21       OL       H16S     hL       0.136590E-01   1.00800           0
      2916 MEMB     21       OL       C117     cD       0.868400E-02   12.0100           0
      2917 MEMB     21       OL       H17R     hL       0.100260E-01   1.00800           0
      2918 MEMB     21       OL       H17S     hL       0.100260E-01   1.00800           0
      2919 MEMB     21       OL       C118     cD      -0.117290       12.0100           0
      2920 MEMB     21       OL       H18R     hL       0.266270E-01   1.00800           0
      2921 MEMB     21       OL       H18S     hL       0.266270E-01   1.00800           0
      2922 MEMB     21       OL       H18T     hL       0.266270E-01   1.00800           0
      2923 MEMB     22       PA       C116     cD      -0.125447       12.0100           0
      2924 MEMB     22       PA       H16R     hL       0.290470E-01   1.00800           0
      2925 MEMB     22       PA       H16S     hL       0.290470E-01   1.00800           0
      2926 MEMB     22       PA       H16T     hL       0.290470E-01   1.00800           0
      2927 MEMB     22       PA       C115     cD       0.139750E-01   12.0100           0
      2928 MEMB     22       PA       H15R     hL       0.929200E-02   1.00800           0
      2929 MEMB     22       PA       H15S     hL       0.929200E-02   1.00800           0
      2930 MEMB     22       PA       C114     cD      -0.200860E-01   12.0100           0
      2931 MEMB     22       PA       H14R     hL       0.159290E-01   1.00800           0
      2932 MEMB     22       PA       H14S     hL       0.159290E-01   1.00800           0
      2933 MEMB     22       PA       C113     cD      -0.330960E-01   12.0100           0
      2934 MEMB     22       PA       H13R     hL       0.146210E-01   1.00800           0
      2935 MEMB     22       PA       H13S     hL       0.146210E-01   1.00800           0
      2936 MEMB     22       PA       C112     cD      -0.276330E-01   12.0100           0
      2937 MEMB     22       PA       H12R     hL       0.113680E-01   1.00800           0
      2938 MEMB     22       PA       H12S     hL       0.113680E-01   1.00800           0
      2939 MEMB     22       PA       C111     cD      -0.252060E-01   12.0100           0
      2940 MEMB     22       PA       H11R     hL       0.143340E-01   1.00800           0
      2941 MEMB     22       PA       H11S     hL       0.143340E-01   1.00800           0
      2942 MEMB     22       PA       C110     cD      -0.288310E-01   12.0100           0
      2943 MEMB     22       PA       H10R     hL       0.146910E-01   1.00800           0
      2944 MEMB     22       PA       H10S     hL       0.146910E-01   1.00800           0
      2945 MEMB     22       PA       C19      cD      -0.304720E-01   12.0100           0
      2946 MEMB     22       PA       H9R      hL       0.138970E-01   1.00800           0
      2947 MEMB     22       PA       H9S      hL       0.138970E-01   1.00800           0
      2948 MEMB     22       PA       C18      cD      -0.157930E-01   12.0100           0
      2949 MEMB     22       PA       H8R      hL       0.906700E-02   1.00800           0
      2950 MEMB     22       PA       H8S      hL       0.906700E-02   1.00800           0
      2951 MEMB     22       PA       C17      cD      -0.196300E-01   12.0100           0
      2952 MEMB     22       PA       H7R      hL       0.110410E-01   1.00800           0
      2953 MEMB     22       PA       H7S      hL       0.110410E-01   1.00800           0
      2954 MEMB     22       PA       C16      cD      -0.244270E-01   12.0100           0
      2955 MEMB     22       PA       H6R      hL       0.133340E-01   1.00800           0
      2956 MEMB     22       PA       H6S      hL       0.133340E-01   1.00800           0
      2957 MEMB     22       PA       C15      cD      -0.293870E-01   12.0100           0
      2958 MEMB     22       PA       H5R      hL       0.167630E-01   1.00800           0
      2959 MEMB     22       PA       H5S      hL       0.167630E-01   1.00800           0
      2960 MEMB     22       PA       C14      cD      -0.300990E-01   12.0100           0
      2961 MEMB     22       PA       H4R      hL       0.208770E-01   1.00800           0
      2962 MEMB     22       PA       H4S      hL       0.208770E-01   1.00800           0
      2963 MEMB     22       PA       C13      cD      -0.488200E-02   12.0100           0
      2964 MEMB     22       PA       H3R      hL       0.190070E-01   1.00800           0
      2965 MEMB     22       PA       H3S      hL       0.190070E-01   1.00800           0
      2966 MEMB     22       PA       C12      cD      -0.149259       12.0100           0
      2967 MEMB     22       PA       H2R      hL       0.473450E-01   1.00800           0
      2968 MEMB     22       PA       H2S      hL       0.473450E-01   1.00800           0
      2969 MEMB     22       PC       C11      cC       0.910403       12.0100           0
      2970 MEMB     22       PC       O12      oC      -0.671566       16.0000           0
      2971 MEMB     22       PC       O11      oS      -0.575489       16.0000           0
      2972 MEMB     22       PC       C1       cA       0.196939       12.0100           0
      2973 MEMB     22       PC       HR       hE       0.704690E-01   1.00800           0
      2974 MEMB     22       PC       HS       hE       0.704690E-01   1.00800           0
      2975 MEMB     22       PC       C2       cA       0.281242       12.0100           0
      2976 MEMB     22       PC       HX       hE       0.632530E-01   1.00800           0
      2977 MEMB     22       PC       C3       cA       0.174590E-01   12.0100           0
      2978 MEMB     22       PC       HA       hE       0.955910E-01   1.00800           0
      2979 MEMB     22       PC       HB       hE       0.955910E-01   1.00800           0
      2980 MEMB     22       PC       O31      oT      -0.509480       16.0000           0
      2981 MEMB     22       PC       P31      pA       1.339721       30.9700           0
      2982 MEMB     22       PC       O32      oT      -0.508176       16.0000           0
      2983 MEMB     22       PC       C31      cA       0.166801       12.0100           0
      2984 MEMB     22       PC       H1A      hE       0.785340E-01   1.00800           0
      2985 MEMB     22       PC       H1B      hE       0.785340E-01   1.00800           0
      2986 MEMB     22       PC       C32      cA      -0.170824       12.0100           0
      2987 MEMB     22       PC       H2A      hX       0.136415       1.00800           0
      2988 MEMB     22       PC       H2B      hX       0.136415       1.00800           0
      2989 MEMB     22       PC       N31      nA       0.245262       14.0100           0
      2990 MEMB     22       PC       C33      cA      -0.338973       12.0100           0
      2991 MEMB     22       PC       H3A      hX       0.172230       1.00800           0
      2992 MEMB     22       PC       H3B      hX       0.172230       1.00800           0
      2993 MEMB     22       PC       H3C      hX       0.172230       1.00800           0
      2994 MEMB     22       PC       C34      cA      -0.338973       12.0100           0
      2995 MEMB     22       PC       H4A      hX       0.172230       1.00800           0
      2996 MEMB     22       PC       H4B      hX       0.172230       1.00800           0
      2997 MEMB     22       PC       H4C      hX       0.172230       1.00800           0
      2998 MEMB     22       PC       C35      cA      -0.338973       12.0100           0
      2999 MEMB     22       PC       H5A      hX       0.172230       1.00800           0
      3000 MEMB     22       PC       H5B      hX       0.172230       1.00800           0
      3001 MEMB     22       PC       H5C      hX       0.172230       1.00800           0
      3002 MEMB     22       PC       O33      oP      -0.875812       16.0000           0
      3003 MEMB     22       PC       O34      oP      -0.875812       16.0000           0
      3004 MEMB     22       PC       O21      oS      -0.552948       16.0000           0
      3005 MEMB     22       PC       C21      cC       0.897613       12.0100           0
      3006 MEMB     22       PC       O22      oC      -0.673755       16.0000           0
      3007 MEMB     22       OL       C12      cD      -0.143418       12.0100           0
      3008 MEMB     22       OL       H2R      hL       0.428610E-01   1.00800           0
      3009 MEMB     22       OL       H2S      hL       0.428610E-01   1.00800           0
      3010 MEMB     22       OL       C13      cD       0.161900E-02   12.0100           0
      3011 MEMB     22       OL       H3R      hL       0.195290E-01   1.00800           0
      3012 MEMB     22       OL       H3S      hL       0.195290E-01   1.00800           0
      3013 MEMB     22       OL       C14      cD      -0.229600E-01   12.0100           0
      3014 MEMB     22       OL       H4R      hL       0.181340E-01   1.00800           0
      3015 MEMB     22       OL       H4S      hL       0.181340E-01   1.00800           0
      3016 MEMB     22       OL       C15      cD      -0.166920E-01   12.0100           0
      3017 MEMB     22       OL       H5R      hL       0.869000E-02   1.00800           0
      3018 MEMB     22       OL       H5S      hL       0.869000E-02   1.00800           0
      3019 MEMB     22       OL       C16      cD      -0.237890E-01   12.0100           0
      3020 MEMB     22       OL       H6R      hL       0.926600E-02   1.00800           0
      3021 MEMB     22       OL       H6S      hL       0.926600E-02   1.00800           0
      3022 MEMB     22       OL       C17      cD      -0.174950E-01   12.0100           0
      3023 MEMB     22       OL       H7R      hL       0.195980E-01   1.00800           0
      3024 MEMB     22       OL       H7S      hL       0.195980E-01   1.00800           0
      3025 MEMB     22       OL       C18      cD       0.317750E-01   12.0100           0
      3026 MEMB     22       OL       H8R      hL       0.326850E-01   1.00800           0
      3027 MEMB     22       OL       H8S      hL       0.326850E-01   1.00800           0
      3028 MEMB     22       OL       C19      cB      -0.244228       12.0100           0
      3029 MEMB     22       OL       H9R      hB       0.131512       1.00800           0
      3030 MEMB     22       OL       C110     cB      -0.239284       12.0100           0
      3031 MEMB     22       OL       H10R     hB       0.126878       1.00800           0
      3032 MEMB     22       OL       C111     cD       0.290590E-01   12.0100           0
      3033 MEMB     22       OL       H11R     hL       0.335310E-01   1.00800           0
      3034 MEMB     22       OL       H11S     hL       0.335310E-01   1.00800           0
      3035 MEMB     22       OL       C112     cD      -0.263530E-01   12.0100           0
      3036 MEMB     22       OL       H12R     hL       0.197170E-01   1.00800           0
      3037 MEMB     22       OL       H12S     hL       0.197170E-01   1.00800           0
      3038 MEMB     22       OL       C113     cD      -0.182570E-01   12.0100           0
      3039 MEMB     22       OL       H13R     hL       0.138000E-01   1.00800           0
      3040 MEMB     22       OL       H13S     hL       0.138000E-01   1.00800           0
      3041 MEMB     22       OL       C114     cD      -0.248490E-01   12.0100           0
      3042 MEMB     22       OL       H14R     hL       0.857200E-02   1.00800           0
      3043 MEMB     22       OL       H14S     hL       0.857200E-02   1.00800           0
      3044 MEMB     22       OL       C115     cD      -0.232470E-01   12.0100           0
      3045 MEMB     22       OL       H15R     hL       0.104030E-01   1.00800           0
      3046 MEMB     22       OL       H15S     hL       0.104030E-01   1.00800           0
      3047 MEMB     22       OL       C116     cD      -0.124880E-01   12.0100           0
      3048 MEMB     22       OL       H16R     hL       0.136590E-01   1.00800           0
      3049 MEMB     22       OL       H16S     hL       0.136590E-01   1.00800           0
      3050 MEMB     22       OL       C117     cD       0.868400E-02   12.0100           0
      3051 MEMB     22       OL       H17R     hL       0.100260E-01   1.00800           0
      3052 MEMB     22       OL       H17S     hL       0.100260E-01   1.00800           0
      3053 MEMB     22       OL       C118     cD      -0.117290       12.0100           0
      3054 MEMB     22       OL       H18R     hL       0.266270E-01   1.00800           0
      3055 MEMB     22       OL       H18S     hL       0.266270E-01   1.00800           0
      3056 MEMB     22       OL       H18T     hL       0.266270E-01   1.00800           0
      3057 MEMB     23       PA       C116     cD      -0.125447       12.0100           0
      3058 MEMB     23       PA       H16R     hL       0.290470E-01   1.00800           0
      3059 MEMB     23       PA       H16S     hL       0.290470E-01   1.00800           0
      3060 MEMB     23       PA       H16T     hL       0.290470E-01   1.00800           0
      3061 MEMB     23       PA       C115     cD       0.139750E-01   12.0100           0
      3062 MEMB     23       PA       H15R     hL       0.929200E-02   1.00800           0
      3063 MEMB     23       PA       H15S     hL       0.929200E-02   1.00800           0
      3064 MEMB     23       PA       C114     cD      -0.200860E-01   12.0100           0
      3065 MEMB     23       PA       H14R     hL       0.159290E-01   1.00800           0
      3066 MEMB     23       PA       H14S     hL       0.159290E-01   1.00800           0
      3067 MEMB     23       PA       C113     cD      -0.330960E-01   12.0100           0
      3068 MEMB     23       PA       H13R     hL       0.146210E-01   1.00800           0
      3069 MEMB     23       PA       H13S     hL       0.146210E-01   1.00800           0
      3070 MEMB     23       PA       C112     cD      -0.276330E-01   12.0100           0
      3071 MEMB     23       PA       H12R     hL       0.113680E-01   1.00800           0
      3072 MEMB     23       PA       H12S     hL       0.113680E-01   1.00800           0
      3073 MEMB     23       PA       C111     cD      -0.252060E-01   12.0100           0
      3074 MEMB     23       PA       H11R     hL       0.143340E-01   1.00800           0
      3075 MEMB     23       PA       H11S     hL       0.143340E-01   1.00800           0
      3076 MEMB     23       PA       C110     cD      -0.288310E-01   12.0100           0
      3077 MEMB     23       PA       H10R     hL       0.146910E-01   1.00800           0
      3078 MEMB     23       PA       H10S     hL       0.146910E-01   1.00800           0
      3079 MEMB     23       PA       C19      cD      -0.304720E-01   12.0100           0
      3080 MEMB     23       PA       H9R      hL       0.138970E-01   1.00800           0
      3081 MEMB     23       PA       H9S      hL       0.138970E-01   1.00800           0
      3082 MEMB     23       PA       C18      cD      -0.157930E-01   12.0100           0
      3083 MEMB     23       PA       H8R      hL       0.906700E-02   1.00800           0
      3084 MEMB     23       PA       H8S      hL       0.906700E-02   1.00800           0
      3085 MEMB     23       PA       C17      cD      -0.196300E-01   12.0100           0
      3086 MEMB     23       PA       H7R      hL       0.110410E-01   1.00800           0
      3087 MEMB     23       PA       H7S      hL       0.110410E-01   1.00800           0
      3088 MEMB     23       PA       C16      cD      -0.244270E-01   12.0100           0
      3089 MEMB     23       PA       H6R      hL       0.133340E-01   1.00800           0
      3090 MEMB     23       PA       H6S      hL       0.133340E-01   1.00800           0
      3091 MEMB     23       PA       C15      cD      -0.293870E-01   12.0100           0
      3092 MEMB     23       PA       H5R      hL       0.167630E-01   1.00800           0
      3093 MEMB     23       PA       H5S      hL       0.167630E-01   1.00800           0
      3094 MEMB     23       PA       C14      cD      -0.300990E-01   12.0100           0
      3095 MEMB     23       PA       H4R      hL       0.208770E-01   1.00800           0
      3096 MEMB     23       PA       H4S      hL       0.208770E-01   1.00800           0
      3097 MEMB     23       PA       C13      cD      -0.488200E-02   12.0100           0
      3098 MEMB     23       PA       H3R      hL       0.190070E-01   1.00800           0
      3099 MEMB     23       PA       H3S      hL       0.190070E-01   1.00800           0
      3100 MEMB     23       PA       C12      cD      -0.149259       12.0100           0
      3101 MEMB     23       PA       H2R      hL       0.473450E-01   1.00800           0
      3102 MEMB     23       PA       H2S      hL       0.473450E-01   1.00800           0
      3103 MEMB     23       PC       C11      cC       0.910403       12.0100           0
      3104 MEMB     23       PC       O12      oC      -0.671566       16.0000           0
      3105 MEMB     23       PC       O11      oS      -0.575489       16.0000           0
      3106 MEMB     23       PC       C1       cA       0.196939       12.0100           0
      3107 MEMB     23       PC       HR       hE       0.704690E-01   1.00800           0
      3108 MEMB     23       PC       HS       hE       0.704690E-01   1.00800           0
      3109 MEMB     23       PC       C2       cA       0.281242       12.0100           0
      3110 MEMB     23       PC       HX       hE       0.632530E-01   1.00800           0
      3111 MEMB     23       PC       C3       cA       0.174590E-01   12.0100           0
      3112 MEMB     23       PC       HA       hE       0.955910E-01   1.00800           0
      3113 MEMB     23       PC       HB       hE       0.955910E-01   1.00800           0
      3114 MEMB     23       PC       O31      oT      -0.509480       16.0000           0
      3115 MEMB     23       PC       P31      pA       1.339721       30.9700           0
      3116 MEMB     23       PC       O32      oT      -0.508176       16.0000           0
      3117 MEMB     23       PC       C31      cA       0.166801       12.0100           0
      3118 MEMB     23       PC       H1A      hE       0.785340E-01   1.00800           0
      3119 MEMB     23       PC       H1B      hE       0.785340E-01   1.00800           0
      3120 MEMB     23       PC       C32      cA      -0.170824       12.0100           0
      3121 MEMB     23       PC       H2A      hX       0.136415       1.00800           0
      3122 MEMB     23       PC       H2B      hX       0.136415       1.00800           0
      3123 MEMB     23       PC       N31      nA       0.245262       14.0100           0
      3124 MEMB     23       PC       C33      cA      -0.338973       12.0100           0
      3125 MEMB     23       PC       H3A      hX       0.172230       1.00800           0
      3126 MEMB     23       PC       H3B      hX       0.172230       1.00800           0
      3127 MEMB     23       PC       H3C      hX       0.172230       1.00800           0
      3128 MEMB     23       PC       C34      cA      -0.338973       12.0100           0
      3129 MEMB     23       PC       H4A      hX       0.172230       1.00800           0
      3130 MEMB     23       PC       H4B      hX       0.172230       1.00800           0
      3131 MEMB     23       PC       H4C      hX       0.172230       1.00800           0
      3132 MEMB     23       PC       C35      cA      -0.338973       12.0100           0
      3133 MEMB     23       PC       H5A      hX       0.172230       1.00800           0
      3134 MEMB     23       PC       H5B      hX       0.172230       1.00800           0
      3135 MEMB     23       PC       H5C      hX       0.172230       1.00800           0
      3136 MEMB     23       PC       O33      oP      -0.875812       16.0000           0
      3137 MEMB     23       PC       O34      oP      -0.875812       16.0000           0
      3138 MEMB     23       PC       O21      oS      -0.552948       16.0000           0
      3139 MEMB     23       PC       C21      cC       0.897613       12.0100           0
      3140 MEMB     23       PC       O22      oC      -0.673755       16.0000           0
      3141 MEMB     23       OL       C12      cD      -0.143418       12.0100           0
      3142 MEMB     23       OL       H2R      hL       0.428610E-01   1.00800           0
      3143 MEMB     23       OL       H2S      hL       0.428610E-01   1.00800           0
      3144 MEMB     23       OL       C13      cD       0.161900E-02   12.0100           0
      3145 MEMB     23       OL       H3R      hL       0.195290E-01   1.00800           0
      3146 MEMB     23       OL       H3S      hL       0.195290E-01   1.00800           0
      3147 MEMB     23       OL       C14      cD      -0.229600E-01   12.0100           0
      3148 MEMB     23       OL       H4R      hL       0.181340E-01   1.00800           0
      3149 MEMB     23       OL       H4S      hL       0.181340E-01   1.00800           0
      3150 MEMB     23       OL       C15      cD      -0.166920E-01   12.0100           0
      3151 MEMB     23       OL       H5R      hL       0.869000E-02   1.00800           0
      3152 MEMB     23       OL       H5S      hL       0.869000E-02   1.00800           0
      3153 MEMB     23       OL       C16      cD      -0.237890E-01   12.0100           0
      3154 MEMB     23       OL       H6R      hL       0.926600E-02   1.00800           0
      3155 MEMB     23       OL       H6S      hL       0.926600E-02   1.00800           0
      3156 MEMB     23       OL       C17      cD      -0.174950E-01   12.0100           0
      3157 MEMB     23       OL       H7R      hL       0.195980E-01   1.00800           0
      3158 MEMB     23       OL       H7S      hL       0.195980E-01   1.00800           0
      3159 MEMB     23       OL       C18      cD       0.317750E-01   12.0100           0
      3160 MEMB     23       OL       H8R      hL       0.326850E-01   1.00800           0
      3161 MEMB     23       OL       H8S      hL       0.326850E-01   1.00800           0
      3162 MEMB     23       OL       C19      cB      -0.244228       12.0100           0
      3163 MEMB     23       OL       H9R      hB       0.131512       1.00800           0
      3164 MEMB     23       OL       C110     cB      -0.239284       12.0100           0
      3165 MEMB     23       OL       H10R     hB       0.126878       1.00800           0
      3166 MEMB     23       OL       C111     cD       0.290590E-01   12.0100           0
      3167 MEMB     23       OL       H11R     hL       0.335310E-01   1.00800           0
      3168 MEMB     23       OL       H11S     hL       0.335310E-01   1.00800           0
      3169 MEMB     23       OL       C112     cD      -0.263530E-01   12.0100           0
      3170 MEMB     23       OL       H12R     hL       0.197170E-01   1.00800           0
      3171 MEMB     23       OL       H12S     hL       0.197170E-01   1.00800           0
      3172 MEMB     23       OL       C113     cD      -0.182570E-01   12.0100           0
      3173 MEMB     23       OL       H13R     hL       0.138000E-01   1.00800           0
      3174 MEMB     23       OL       H13S     hL       0.138000E-01   1.00800           0
      3175 MEMB     23       OL       C114     cD      -0.248490E-01   12.0100           0
      3176 MEMB     23       OL       H14R     hL       0.857200E-02   1.00800           0
      3177 MEMB     23       OL       H14S     hL       0.857200E-02   1.00800           0
      3178 MEMB     23       OL       C115     cD      -0.232470E-01   12.0100           0
      3179 MEMB     23       OL       H15R     hL       0.104030E-01   1.00800           0
      3180 MEMB     23       OL       H15S     hL       0.104030E-01   1.00800           0
      3181 MEMB     23       OL       C116     cD      -0.124880E-01   12.0100           0
      3182 MEMB     23       OL       H16R     hL       0.136590E-01   1.00800           0
      3183 MEMB     23       OL       H16S     hL       0.136590E-01   1.00800           0
      3184 MEMB     23       OL       C117     cD       0.868400E-02   12.0100           0
      3185 MEMB     23       OL       H17R     hL       0.100260E-01   1.00800           0
      3186 MEMB     23       OL       H17S     hL       0.100260E-01   1.00800           0
      3187 MEMB     23       OL       C118     cD      -0.117290       12.0100           0
      3188 MEMB     23       OL       H18R     hL       0.266270E-01   1.00800           0
      3189 MEMB     23       OL       H18S     hL       0.266270E-01   1.00800           0
      3190 MEMB     23       OL       H18T     hL       0.266270E-01   1.00800           0
      3191 MEMB     24       PA       C116     cD      -0.125447       12.0100           0
      3192 MEMB     24       PA       H16R     hL       0.290470E-01   1.00800           0
      3193 MEMB     24       PA       H16S     hL       0.290470E-01   1.00800           0
      3194 MEMB     24       PA       H16T     hL       0.290470E-01   1.00800           0
      3195 MEMB     24       PA       C115     cD       0.139750E-01   12.0100           0
      3196 MEMB     24       PA       H15R     hL       0.929200E-02   1.00800           0
      3197 MEMB     24       PA       H15S     hL       0.929200E-02   1.00800           0
      3198 MEMB     24       PA       C114     cD      -0.200860E-01   12.0100           0
      3199 MEMB     24       PA       H14R     hL       0.159290E-01   1.00800           0
      3200 MEMB     24       PA       H14S     hL       0.159290E-01   1.00800           0
      3201 MEMB     24       PA       C113     cD      -0.330960E-01   12.0100           0
      3202 MEMB     24       PA       H13R     hL       0.146210E-01   1.00800           0
      3203 MEMB     24       PA       H13S     hL       0.146210E-01   1.00800           0
      3204 MEMB     24       PA       C112     cD      -0.276330E-01   12.0100           0
      3205 MEMB     24       PA       H12R     hL       0.113680E-01   1.00800           0
      3206 MEMB     24       PA       H12S     hL       0.113680E-01   1.00800           0
      3207 MEMB     24       PA       C111     cD      -0.252060E-01   12.0100           0
      3208 MEMB     24       PA       H11R     hL       0.143340E-01   1.00800           0
      3209 MEMB     24       PA       H11S     hL       0.143340E-01   1.00800           0
      3210 MEMB     24       PA       C110     cD      -0.288310E-01   12.0100           0
      3211 MEMB     24       PA       H10R     hL       0.146910E-01   1.00800           0
      3212 MEMB     24       PA       H10S     hL       0.146910E-01   1.00800           0
      3213 MEMB     24       PA       C19      cD      -0.304720E-01   12.0100           0
      3214 MEMB     24       PA       H9R      hL       0.138970E-01   1.00800           0
      3215 MEMB     24       PA       H9S      hL       0.138970E-01   1.00800           0
      3216 MEMB     24       PA       C18      cD      -0.157930E-01   12.0100           0
      3217 MEMB     24       PA       H8R      hL       0.906700E-02   1.00800           0
      3218 MEMB     24       PA       H8S      hL       0.906700E-02   1.00800           0
      3219 MEMB     24       PA       C17      cD      -0.196300E-01   12.0100           0
      3220 MEMB     24       PA       H7R      hL       0.110410E-01   1.00800           0
      3221 MEMB     24       PA       H7S      hL       0.110410E-01   1.00800           0
      3222 MEMB     24       PA       C16      cD      -0.244270E-01   12.0100           0
      3223 MEMB     24       PA       H6R      hL       0.133340E-01   1.00800           0
      3224 MEMB     24       PA       H6S      hL       0.133340E-01   1.00800           0
      3225 MEMB     24       PA       C15      cD      -0.293870E-01   12.0100           0
      3226 MEMB     24       PA       H5R      hL       0.167630E-01   1.00800           0
      3227 MEMB     24       PA       H5S      hL       0.167630E-01   1.00800           0
      3228 MEMB     24       PA       C14      cD      -0.300990E-01   12.0100           0
      3229 MEMB     24       PA       H4R      hL       0.208770E-01   1.00800           0
      3230 MEMB     24       PA       H4S      hL       0.208770E-01   1.00800           0
      3231 MEMB     24       PA       C13      cD      -0.488200E-02   12.0100           0
      3232 MEMB     24       PA       H3R      hL       0.190070E-01   1.00800           0
      3233 MEMB     24       PA       H3S      hL       0.190070E-01   1.00800           0
      3234 MEMB     24       PA       C12      cD      -0.149259       12.0100           0
      3235 MEMB     24       PA       H2R      hL       0.473450E-01   1.00800           0
      3236 MEMB     24       PA       H2S      hL       0.473450E-01   1.00800           0
      3237 MEMB     24       PC       C11      cC       0.910403       12.0100           0
      3238 MEMB     24       PC       O12      oC      -0.671566       16.0000           0
      3239 MEMB     24       PC       O11      oS      -0.575489       16.0000           0
      3240 MEMB     24       PC       C1       cA       0.196939       12.0100           0
      3241 MEMB     24       PC       HR       hE       0.704690E-01   1.00800           0
      3242 MEMB     24       PC       HS       hE       0.704690E-01   1.00800           0
      3243 MEMB     24       PC       C2       cA       0.281242       12.0100           0
      3244 MEMB     24       PC       HX       hE       0.632530E-01   1.00800           0
      3245 MEMB     24       PC       C3       cA       0.174590E-01   12.0100           0
      3246 MEMB     24       PC       HA       hE       0.955910E-01   1.00800           0
      3247 MEMB     24       PC       HB       hE       0.955910E-01   1.00800           0
      3248 MEMB     24       PC       O31      oT      -0.509480       16.0000           0
      3249 MEMB     24       PC       P31      pA       1.339721       30.9700           0
      3250 MEMB     24       PC       O32      oT      -0.508176       16.0000           0
      3251 MEMB     24       PC       C31      cA       0.166801       12.0100           0
      3252 MEMB     24       PC       H1A      hE       0.785340E-01   1.00800           0
      3253 MEMB     24       PC       H1B      hE       0.785340E-01   1.00800           0
      3254 MEMB     24       PC       C32      cA      -0.170824       12.0100           0
      3255 MEMB     24       PC       H2A      hX       0.136415       1.00800           0
      3256 MEMB     24       PC       H2B      hX       0.136415       1.00800           0
      3257 MEMB     24       PC       N31      nA       0.245262       14.0100           0
      3258 MEMB     24       PC       C33      cA      -0.338973       12.0100           0
      3259 MEMB     24       PC       H3A      hX       0.172230       1.00800           0
      3260 MEMB     24       PC       H3B      hX       0.172230       1.00800           0
      3261 MEMB     24       PC       H3C      hX       0.172230       1.00800           0
      3262 MEMB     24       PC       C34      cA      -0.338973       12.0100           0
      3263 MEMB     24       PC       H4A      hX       0.172230       1.00800           0
      3264 MEMB     24       PC       H4B      hX       0.172230       1.00800           0
      3265 MEMB     24       PC       H4C      hX       0.172230       1.00800           0
      3266 MEMB     24       PC       C35      cA      -0.338973       12.0100           0
      3267 MEMB     24       PC       H5A      hX       0.172230       1.00800           0
      3268 MEMB     24       PC       H5B      hX       0.172230       1.00800           0
      3269 MEMB     24       PC       H5C      hX       0.172230       1.00800           0
      3270 MEMB     24       PC       O33      oP      -0.875812       16.0000           0
      3271 MEMB     24       PC       O34      oP      -0.875812       16.0000           0
      3272 MEMB     24       PC       O21      oS      -0.552948       16.0000           0
      3273 MEMB     24       PC       C21      cC       0.897613       12.0100           0
      3274 MEMB     24       PC       O22      oC      -0.673755       16.0000           0
      3275 MEMB     24       OL       C12      cD      -0.143418       12.0100           0
      3276 MEMB     24       OL       H2R      hL       0.428610E-01   1.00800           0
      3277 MEMB     24       OL       H2S      hL       0.428610E-01   1.00800           0
      3278 MEMB     24       OL       C13      cD       0.161900E-02   12.0100           0
      3279 MEMB     24       OL       H3R      hL       0.195290E-01   1.00800           0
      3280 MEMB     24       OL       H3S      hL       0.195290E-01   1.00800           0
      3281 MEMB     24       OL       C14      cD      -0.229600E-01   12.0100           0
      3282 MEMB     24       OL       H4R      hL       0.181340E-01   1.00800           0
      3283 MEMB     24       OL       H4S      hL       0.181340E-01   1.00800           0
      3284 MEMB     24       OL       C15      cD      -0.166920E-01   12.0100           0
      3285 MEMB     24       OL       H5R      hL       0.869000E-02   1.00800           0
      3286 MEMB     24       OL       H5S      hL       0.869000E-02   1.00800           0
      3287 MEMB     24       OL       C16      cD      -0.237890E-01   12.0100           0
      3288 MEMB     24       OL       H6R      hL       0.926600E-02   1.00800           0
      3289 MEMB     24       OL       H6S      hL       0.926600E-02   1.00800           0
      3290 MEMB     24       OL       C17      cD      -0.174950E-01   12.0100           0
      3291 MEMB     24       OL       H7R      hL       0.195980E-01   1.00800           0
      3292 MEMB     24       OL       H7S      hL       0.195980E-01   1.00800           0
      3293 MEMB     24       OL       C18      cD       0.317750E-01   12.0100           0
      3294 MEMB     24       OL       H8R      hL       0.326850E-01   1.00800           0
      3295 MEMB     24       OL       H8S      hL       0.326850E-01   1.00800           0
      3296 MEMB     24       OL       C19      cB      -0.244228       12.0100           0
      3297 MEMB     24       OL       H9R      hB       0.131512       1.00800           0
      3298 MEMB     24       OL       C110     cB      -0.239284       12.0100           0
      3299 MEMB     24       OL       H10R     hB       0.126878       1.00800           0
      3300 MEMB     24       OL       C111     cD       0.290590E-01   12.0100           0
      3301 MEMB     24       OL       H11R     hL       0.335310E-01   1.00800           0
      3302 MEMB     24       OL       H11S     hL       0.335310E-01   1.00800           0
      3303 MEMB     24       OL       C112     cD      -0.263530E-01   12.0100           0
      3304 MEMB     24       OL       H12R     hL       0.197170E-01   1.00800           0
      3305 MEMB     24       OL       H12S     hL       0.197170E-01   1.00800           0
      3306 MEMB     24       OL       C113     cD      -0.182570E-01   12.0100           0
      3307 MEMB     24       OL       H13R     hL       0.138000E-01   1.00800           0
      3308 MEMB     24       OL       H13S     hL       0.138000E-01   1.00800           0
      3309 MEMB     24       OL       C114     cD      -0.248490E-01   12.0100           0
      3310 MEMB     24       OL       H14R     hL       0.857200E-02   1.00800           0
      3311 MEMB     24       OL       H14S     hL       0.857200E-02   1.00800           0
      3312 MEMB     24       OL       C115     cD      -0.232470E-01   12.0100           0
      3313 MEMB     24       OL       H15R     hL       0.104030E-01   1.00800           0
      3314 MEMB     24       OL       H15S     hL       0.104030E-01   1.00800           0
      3315 MEMB     24       OL       C116     cD      -0.124880E-01   12.0100           0
      3316 MEMB     24       OL       H16R     hL       0.136590E-01   1.00800           0
      3317 MEMB     24       OL       H16S     hL       0.136590E-01   1.00800           0
      3318 MEMB     24       OL       C117     cD       0.868400E-02   12.0100           0
      3319 MEMB     24       OL       H17R     hL       0.100260E-01   1.00800           0
      3320 MEMB     24       OL       H17S     hL       0.100260E-01   1.00800           0
      3321 MEMB     24       OL       C118     cD      -0.117290       12.0100           0
      3322 MEMB     24       OL       H18R     hL       0.266270E-01   1.00800           0
      3323 MEMB     24       OL       H18S     hL       0.266270E-01   1.00800           0
      3324 MEMB     24       OL       H18T     hL       0.266270E-01   1.00800           0
      3325 MEMB     25       PA       C116     cD      -0.125447       12.0100           0
      3326 MEMB     25       PA       H16R     hL       0.290470E-01   1.00800           0
      3327 MEMB     25       PA       H16S     hL       0.290470E-01   1.00800           0
      3328 MEMB     25       PA       H16T     hL       0.290470E-01   1.00800           0
      3329 MEMB     25       PA       C115     cD       0.139750E-01   12.0100           0
      3330 MEMB     25       PA       H15R     hL       0.929200E-02   1.00800           0
      3331 MEMB     25       PA       H15S     hL       0.929200E-02   1.00800           0
      3332 MEMB     25       PA       C114     cD      -0.200860E-01   12.0100           0
      3333 MEMB     25       PA       H14R     hL       0.159290E-01   1.00800           0
      3334 MEMB     25       PA       H14S     hL       0.159290E-01   1.00800           0
      3335 MEMB     25       PA       C113     cD      -0.330960E-01   12.0100           0
      3336 MEMB     25       PA       H13R     hL       0.146210E-01   1.00800           0
      3337 MEMB     25       PA       H13S     hL       0.146210E-01   1.00800           0
      3338 MEMB     25       PA       C112     cD      -0.276330E-01   12.0100           0
      3339 MEMB     25       PA       H12R     hL       0.113680E-01   1.00800           0
      3340 MEMB     25       PA       H12S     hL       0.113680E-01   1.00800           0
      3341 MEMB     25       PA       C111     cD      -0.252060E-01   12.0100           0
      3342 MEMB     25       PA       H11R     hL       0.143340E-01   1.00800           0
      3343 MEMB     25       PA       H11S     hL       0.143340E-01   1.00800           0
      3344 MEMB     25       PA       C110     cD      -0.288310E-01   12.0100           0
      3345 MEMB     25       PA       H10R     hL       0.146910E-01   1.00800           0
      3346 MEMB     25       PA       H10S     hL       0.146910E-01   1.00800           0
      3347 MEMB     25       PA       C19      cD      -0.304720E-01   12.0100           0
      3348 MEMB     25       PA       H9R      hL       0.138970E-01   1.00800           0
      3349 MEMB     25       PA       H9S      hL       0.138970E-01   1.00800           0
      3350 MEMB     25       PA       C18      cD      -0.157930E-01   12.0100           0
      3351 MEMB     25       PA       H8R      hL       0.906700E-02   1.00800           0
      3352 MEMB     25       PA       H8S      hL       0.906700E-02   1.00800           0
      3353 MEMB     25       PA       C17      cD      -0.196300E-01   12.0100           0
      3354 MEMB     25       PA       H7R      hL       0.110410E-01   1.00800           0
      3355 MEMB     25       PA       H7S      hL       0.110410E-01   1.00800           0
      3356 MEMB     25       PA       C16      cD      -0.244270E-01   12.0100           0
      3357 MEMB     25       PA       H6R      hL       0.133340E-01   1.00800           0
      3358 MEMB     25       PA       H6S      hL       0.133340E-01   1.00800           0
      3359 MEMB     25       PA       C15      cD      -0.293870E-01   12.0100           0
      3360 MEMB     25       PA       H5R      hL       0.167630E-01   1.00800           0
      3361 MEMB     25       PA       H5S      hL       0.167630E-01   1.00800           0
      3362 MEMB     25       PA       C14      cD      -0.300990E-01   12.0100           0
      3363 MEMB     25       PA       H4R      hL       0.208770E-01   1.00800           0
      3364 MEMB     25       PA       H4S      hL       0.208770E-01   1.00800           0
      3365 MEMB     25       PA       C13      cD      -0.488200E-02   12.0100           0
      3366 MEMB     25       PA       H3R      hL       0.190070E-01   1.00800           0
      3367 MEMB     25       PA       H3S      hL       0.190070E-01   1.00800           0
      3368 MEMB     25       PA       C12      cD      -0.149259       12.0100           0
      3369 MEMB     25       PA       H2R      hL       0.473450E-01   1.00800           0
      3370 MEMB     25       PA       H2S      hL       0.473450E-01   1.00800           0
      3371 MEMB     25       PC       C11      cC       0.910403       12.0100           0
      3372 MEMB     25       PC       O12      oC      -0.671566       16.0000           0
      3373 MEMB     25       PC       O11      oS      -0.575489       16.0000           0
      3374 MEMB     25       PC       C1       cA       0.196939       12.0100           0
      3375 MEMB     25       PC       HR       hE       0.704690E-01   1.00800           0
      3376 MEMB     25       PC       HS       hE       0.704690E-01   1.00800           0
      3377 MEMB     25       PC       C2       cA       0.281242       12.0100           0
      3378 MEMB     25       PC       HX       hE       0.632530E-01   1.00800           0
      3379 MEMB     25       PC       C3       cA       0.174590E-01   12.0100           0
      3380 MEMB     25       PC       HA       hE       0.955910E-01   1.00800           0
      3381 MEMB     25       PC       HB       hE       0.955910E-01   1.00800           0
      3382 MEMB     25       PC       O31      oT      -0.509480       16.0000           0
      3383 MEMB     25       PC       P31      pA       1.339721       30.9700           0
      3384 MEMB     25       PC       O32      oT      -0.508176       16.0000           0
      3385 MEMB     25       PC       C31      cA       0.166801       12.0100           0
      3386 MEMB     25       PC       H1A      hE       0.785340E-01   1.00800           0
      3387 MEMB     25       PC       H1B      hE       0.785340E-01   1.00800           0
      3388 MEMB     25       PC       C32      cA      -0.170824       12.0100           0
      3389 MEMB     25       PC       H2A      hX       0.136415       1.00800           0
      3390 MEMB     25       PC       H2B      hX       0.136415       1.00800           0
      3391 MEMB     25       PC       N31      nA       0.245262       14.0100           0
      3392 MEMB     25       PC       C33      cA      -0.338973       12.0100           0
      3393 MEMB     25       PC       H3A      hX       0.172230       1.00800           0
      3394 MEMB     25       PC       H3B      hX       0.172230       1.00800           0
      3395 MEMB     25       PC       H3C      hX       0.172230       1.00800           0
      3396 MEMB     25       PC       C34      cA      -0.338973       12.0100           0
      3397 MEMB     25       PC       H4A      hX       0.172230       1.00800           0
      3398 MEMB     25       PC       H4B      hX       0.172230       1.00800           0
      3399 MEMB     25       PC       H4C      hX       0.172230       1.00800           0
      3400 MEMB     25       PC       C35      cA      -0.338973       12.0100           0
      3401 MEMB     25       PC       H5A      hX       0.172230       1.00800           0
      3402 MEMB     25       PC       H5B      hX       0.172230       1.00800           0
      3403 MEMB     25       PC       H5C      hX       0.172230       1.00800           0
      3404 MEMB     25       PC       O33      oP      -0.875812       16.0000           0
      3405 MEMB     25       PC       O34      oP      -0.875812       16.0000           0
      3406 MEMB     25       PC       O21      oS      -0.552948       16.0000           0
      3407 MEMB     25       PC       C21      cC       0.897613       12.0100           0
      3408 MEMB     25       PC       O22      oC      -0.673755       16.0000           0
      3409 MEMB     25       OL       C12      cD      -0.143418       12.0100           0
      3410 MEMB     25       OL       H2R      hL       0.428610E-01   1.00800           0
      3411 MEMB     25       OL       H2S      hL       0.428610E-01   1.00800           0
      3412 MEMB     25       OL       C13      cD       0.161900E-02   12.0100           0
      3413 MEMB     25       OL       H3R      hL       0.195290E-01   1.00800           0
      3414 MEMB     25       OL       H3S      hL       0.195290E-01   1.00800           0
      3415 MEMB     25       OL       C14      cD      -0.229600E-01   12.0100           0
      3416 MEMB     25       OL       H4R      hL       0.181340E-01   1.00800           0
      3417 MEMB     25       OL       H4S      hL       0.181340E-01   1.00800           0
      3418 MEMB     25       OL       C15      cD      -0.166920E-01   12.0100           0
      3419 MEMB     25       OL       H5R      hL       0.869000E-02   1.00800           0
      3420 MEMB     25       OL       H5S      hL       0.869000E-02   1.00800           0
      3421 MEMB     25       OL       C16      cD      -0.237890E-01   12.0100           0
      3422 MEMB     25       OL       H6R      hL       0.926600E-02   1.00800           0
      3423 MEMB     25       OL       H6S      hL       0.926600E-02   1.00800           0
      3424 MEMB     25       OL       C17      cD      -0.174950E-01   12.0100           0
      3425 MEMB     25       OL       H7R      hL       0.195980E-01   1.00800           0
      3426 MEMB     25       OL       H7S      hL       0.195980E-01   1.00800           0
      3427 MEMB     25       OL       C18      cD       0.317750E-01   12.0100           0
      3428 MEMB     25       OL       H8R      hL       0.326850E-01   1.00800           0
      3429 MEMB     25       OL       H8S      hL       0.326850E-01   1.00800           0
      3430 MEMB     25       OL       C19      cB      -0.244228       12.0100           0
      3431 MEMB     25       OL       H9R      hB       0.131512       1.00800           0
      3432 MEMB     25       OL       C110     cB      -0.239284       12.0100           0
      3433 MEMB     25       OL       H10R     hB       0.126878       1.00800           0
      3434 MEMB     25       OL       C111     cD       0.290590E-01   12.0100           0
      3435 MEMB     25       OL       H11R     hL       0.335310E-01   1.00800           0
      3436 MEMB     25       OL       H11S     hL       0.335310E-01   1.00800           0
      3437 MEMB     25       OL       C112     cD      -0.263530E-01   12.0100           0
      3438 MEMB     25       OL       H12R     hL       0.197170E-01   1.00800           0
      3439 MEMB     25       OL       H12S     hL       0.197170E-01   1.00800           0
      3440 MEMB     25       OL       C113     cD      -0.182570E-01   12.0100           0
      3441 MEMB     25       OL       H13R     hL       0.138000E-01   1.00800           0
      3442 MEMB     25       OL       H13S     hL       0.138000E-01   1.00800           0
      3443 MEMB     25       OL       C114     cD      -0.248490E-01   12.0100           0
      3444 MEMB     25       OL       H14R     hL       0.857200E-02   1.00800           0
      3445 MEMB     25       OL       H14S     hL       0.857200E-02   1.00800           0
      3446 MEMB     25       OL       C115     cD      -0.232470E-01   12.0100           0
      3447 MEMB     25       OL       H15R     hL       0.104030E-01   1.00800           0
      3448 MEMB     25       OL       H15S     hL       0.104030E-01   1.00800           0
      3449 MEMB     25       OL       C116     cD      -0.124880E-01   12.0100           0
      3450 MEMB     25       OL       H16R     hL       0.136590E-01   1.00800           0
      3451 MEMB     25       OL       H16S     hL       0.136590E-01   1.00800           0
      3452 MEMB     25       OL       C117     cD       0.868400E-02   12.0100           0
      3453 MEMB     25       OL       H17R     hL       0.100260E-01   1.00800           0
      3454 MEMB     25       OL       H17S     hL       0.100260E-01   1.00800           0
      3455 MEMB     25       OL       C118     cD      -0.117290       12.0100           0
      3456 MEMB     25       OL       H18R     hL       0.266270E-01   1.00800           0
      3457 MEMB     25       OL       H18S     hL       0.266270E-01   1.00800           0
      3458 MEMB     25       OL       H18T     hL       0.266270E-01   1.00800           0
      3459 MEMB     26       PA       C116     cD      -0.125447       12.0100           0
      3460 MEMB     26       PA       H16R     hL       0.290470E-01   1.00800           0
      3461 MEMB     26       PA       H16S     hL       0.290470E-01   1.00800           0
      3462 MEMB     26       PA       H16T     hL       0.290470E-01   1.00800           0
      3463 MEMB     26       PA       C115     cD       0.139750E-01   12.0100           0
      3464 MEMB     26       PA       H15R     hL       0.929200E-02   1.00800           0
      3465 MEMB     26       PA       H15S     hL       0.929200E-02   1.00800           0
      3466 MEMB     26       PA       C114     cD      -0.200860E-01   12.0100           0
      3467 MEMB     26       PA       H14R     hL       0.159290E-01   1.00800           0
      3468 MEMB     26       PA       H14S     hL       0.159290E-01   1.00800           0
      3469 MEMB     26       PA       C113     cD      -0.330960E-01   12.0100           0
      3470 MEMB     26       PA       H13R     hL       0.146210E-01   1.00800           0
      3471 MEMB     26       PA       H13S     hL       0.146210E-01   1.00800           0
      3472 MEMB     26       PA       C112     cD      -0.276330E-01   12.0100           0
      3473 MEMB     26       PA       H12R     hL       0.113680E-01   1.00800           0
      3474 MEMB     26       PA       H12S     hL       0.113680E-01   1.00800           0
      3475 MEMB     26       PA       C111     cD      -0.252060E-01   12.0100           0
      3476 MEMB     26       PA       H11R     hL       0.143340E-01   1.00800           0
      3477 MEMB     26       PA       H11S     hL       0.143340E-01   1.00800           0
      3478 MEMB     26       PA       C110     cD      -0.288310E-01   12.0100           0
      3479 MEMB     26       PA       H10R     hL       0.146910E-01   1.00800           0
      3480 MEMB     26       PA       H10S     hL       0.146910E-01   1.00800           0
      3481 MEMB     26       PA       C19      cD      -0.304720E-01   12.0100           0
      3482 MEMB     26       PA       H9R      hL       0.138970E-01   1.00800           0
      3483 MEMB     26       PA       H9S      hL       0.138970E-01   1.00800           0
      3484 MEMB     26       PA       C18      cD      -0.157930E-01   12.0100           0
      3485 MEMB     26       PA       H8R      hL       0.906700E-02   1.00800           0
      3486 MEMB     26       PA       H8S      hL       0.906700E-02   1.00800           0
      3487 MEMB     26       PA       C17      cD      -0.196300E-01   12.0100           0
      3488 MEMB     26       PA       H7R      hL       0.110410E-01   1.00800           0
      3489 MEMB     26       PA       H7S      hL       0.110410E-01   1.00800           0
      3490 MEMB     26       PA       C16      cD      -0.244270E-01   12.0100           0
      3491 MEMB     26       PA       H6R      hL       0.133340E-01   1.00800           0
      3492 MEMB     26       PA       H6S      hL       0.133340E-01   1.00800           0
      3493 MEMB     26       PA       C15      cD      -0.293870E-01   12.0100           0
      3494 MEMB     26       PA       H5R      hL       0.167630E-01   1.00800           0
      3495 MEMB     26       PA       H5S      hL       0.167630E-01   1.00800           0
      3496 MEMB     26       PA       C14      cD      -0.300990E-01   12.0100           0
      3497 MEMB     26       PA       H4R      hL       0.208770E-01   1.00800           0
      3498 MEMB     26       PA       H4S      hL       0.208770E-01   1.00800           0
      3499 MEMB     26       PA       C13      cD      -0.488200E-02   12.0100           0
      3500 MEMB     26       PA       H3R      hL       0.190070E-01   1.00800           0
      3501 MEMB     26       PA       H3S      hL       0.190070E-01   1.00800           0
      3502 MEMB     26       PA       C12      cD      -0.149259       12.0100           0
      3503 MEMB     26       PA       H2R      hL       0.473450E-01   1.00800           0
      3504 MEMB     26       PA       H2S      hL       0.473450E-01   1.00800           0
      3505 MEMB     26       PC       C11      cC       0.910403       12.0100           0
      3506 MEMB     26       PC       O12      oC      -0.671566       16.0000           0
      3507 MEMB     26       PC       O11      oS      -0.575489       16.0000           0
      3508 MEMB     26       PC       C1       cA       0.196939       12.0100           0
      3509 MEMB     26       PC       HR       hE       0.704690E-01   1.00800           0
      3510 MEMB     26       PC       HS       hE       0.704690E-01   1.00800           0
      3511 MEMB     26       PC       C2       cA       0.281242       12.0100           0
      3512 MEMB     26       PC       HX       hE       0.632530E-01   1.00800           0
      3513 MEMB     26       PC       C3       cA       0.174590E-01   12.0100           0
      3514 MEMB     26       PC       HA       hE       0.955910E-01   1.00800           0
      3515 MEMB     26       PC       HB       hE       0.955910E-01   1.00800           0
      3516 MEMB     26       PC       O31      oT      -0.509480       16.0000           0
      3517 MEMB     26       PC       P31      pA       1.339721       30.9700           0
      3518 MEMB     26       PC       O32      oT      -0.508176       16.0000           0
      3519 MEMB     26       PC       C31      cA       0.166801       12.0100           0
      3520 MEMB     26       PC       H1A      hE       0.785340E-01   1.00800           0
      3521 MEMB     26       PC       H1B      hE       0.785340E-01   1.00800           0
      3522 MEMB     26       PC       C32      cA      -0.170824       12.0100           0
      3523 MEMB     26       PC       H2A      hX       0.136415       1.00800           0
      3524 MEMB     26       PC       H2B      hX       0.136415       1.00800           0
      3525 MEMB     26       PC       N31      nA       0.245262       14.0100           0
      3526 MEMB     26       PC       C33      cA      -0.338973       12.0100           0
      3527 MEMB     26       PC       H3A      hX       0.172230       1.00800           0
      3528 MEMB     26       PC       H3B      hX       0.172230       1.00800           0
      3529 MEMB     26       PC       H3C      hX       0.172230       1.00800           0
      3530 MEMB     26       PC       C34      cA      -0.338973       12.0100           0
      3531 MEMB     26       PC       H4A      hX       0.172230       1.00800           0
      3532 MEMB     26       PC       H4B      hX       0.172230       1.00800           0
      3533 MEMB     26       PC       H4C      hX       0.172230       1.00800           0
      3534 MEMB     26       PC       C35      cA      -0.338973       12.0100           0
      3535 MEMB     26       PC       H5A      hX       0.172230       1.00800           0
      3536 MEMB     26       PC       H5B      hX       0.172230       1.00800           0
      3537 MEMB     26       PC       H5C      hX       0.172230       1.00800           0
      3538 MEMB     26       PC       O33      oP      -0.875812       16.0000           0
      3539 MEMB     26       PC       O34      oP      -0.875812       16.0000           0
      3540 MEMB     26       PC       O21      oS      -0.552948       16.0000           0
      3541 MEMB     26       PC       C21      cC       0.897613       12.0100           0
      3542 MEMB     26       PC       O22      oC      -0.673755       16.0000           0
      3543 MEMB     26       OL       C12      cD      -0.143418       12.0100           0
      3544 MEMB     26       OL       H2R      hL       0.428610E-01   1.00800           0
      3545 MEMB     26       OL       H2S      hL       0.428610E-01   1.00800           0
      3546 MEMB     26       OL       C13      cD       0.161900E-02   12.0100           0
      3547 MEMB     26       OL       H3R      hL       0.195290E-01   1.00800           0
      3548 MEMB     26       OL       H3S      hL       0.195290E-01   1.00800           0
      3549 MEMB     26       OL       C14      cD      -0.229600E-01   12.0100           0
      3550 MEMB     26       OL       H4R      hL       0.181340E-01   1.00800           0
      3551 MEMB     26       OL       H4S      hL       0.181340E-01   1.00800           0
      3552 MEMB     26       OL       C15      cD      -0.166920E-01   12.0100           0
      3553 MEMB     26       OL       H5R      hL       0.869000E-02   1.00800           0
      3554 MEMB     26       OL       H5S      hL       0.869000E-02   1.00800           0
      3555 MEMB     26       OL       C16      cD      -0.237890E-01   12.0100           0
      3556 MEMB     26       OL       H6R      hL       0.926600E-02   1.00800           0
      3557 MEMB     26       OL       H6S      hL       0.926600E-02   1.00800           0
      3558 MEMB     26       OL       C17      cD      -0.174950E-01   12.0100           0
      3559 MEMB     26       OL       H7R      hL       0.195980E-01   1.00800           0
      3560 MEMB     26       OL       H7S      hL       0.195980E-01   1.00800           0
      3561 MEMB     26       OL       C18      cD       0.317750E-01   12.0100           0
      3562 MEMB     26       OL       H8R      hL       0.326850E-01   1.00800           0
      3563 MEMB     26       OL       H8S      hL       0.326850E-01   1.00800           0
      3564 MEMB     26       OL       C19      cB      -0.244228       12.0100           0
      3565 MEMB     26       OL       H9R      hB       0.131512       1.00800           0
      3566 MEMB     26       OL       C110     cB      -0.239284       12.0100           0
      3567 MEMB     26       OL       H10R     hB       0.126878       1.00800           0
      3568 MEMB     26       OL       C111     cD       0.290590E-01   12.0100           0
      3569 MEMB     26       OL       H11R     hL       0.335310E-01   1.00800           0
      3570 MEMB     26       OL       H11S     hL       0.335310E-01   1.00800           0
      3571 MEMB     26       OL       C112     cD      -0.263530E-01   12.0100           0
      3572 MEMB     26       OL       H12R     hL       0.197170E-01   1.00800           0
      3573 MEMB     26       OL       H12S     hL       0.197170E-01   1.00800           0
      3574 MEMB     26       OL       C113     cD      -0.182570E-01   12.0100           0
      3575 MEMB     26       OL       H13R     hL       0.138000E-01   1.00800           0
      3576 MEMB     26       OL       H13S     hL       0.138000E-01   1.00800           0
      3577 MEMB     26       OL       C114     cD      -0.248490E-01   12.0100           0
      3578 MEMB     26       OL       H14R     hL       0.857200E-02   1.00800           0
      3579 MEMB     26       OL       H14S     hL       0.857200E-02   1.00800           0
      3580 MEMB     26       OL       C115     cD      -0.232470E-01   12.0100           0
      3581 MEMB     26       OL       H15R     hL       0.104030E-01   1.00800           0
      3582 MEMB     26       OL       H15S     hL       0.104030E-01   1.00800           0
      3583 MEMB     26       OL       C116     cD      -0.124880E-01   12.0100           0
      3584 MEMB     26       OL       H16R     hL       0.136590E-01   1.00800           0
      3585 MEMB     26       OL       H16S     hL       0.136590E-01   1.00800           0
      3586 MEMB     26       OL       C117     cD       0.868400E-02   12.0100           0
      3587 MEMB     26       OL       H17R     hL       0.100260E-01   1.00800           0
      3588 MEMB     26       OL       H17S     hL       0.100260E-01   1.00800           0
      3589 MEMB     26       OL       C118     cD      -0.117290       12.0100           0
      3590 MEMB     26       OL       H18R     hL       0.266270E-01   1.00800           0
      3591 MEMB     26       OL       H18S     hL       0.266270E-01   1.00800           0
      3592 MEMB     26       OL       H18T     hL       0.266270E-01   1.00800           0
      3593 MEMB     27       PA       C116     cD      -0.125447       12.0100           0
      3594 MEMB     27       PA       H16R     hL       0.290470E-01   1.00800           0
      3595 MEMB     27       PA       H16S     hL       0.290470E-01   1.00800           0
      3596 MEMB     27       PA       H16T     hL       0.290470E-01   1.00800           0
      3597 MEMB     27       PA       C115     cD       0.139750E-01   12.0100           0
      3598 MEMB     27       PA       H15R     hL       0.929200E-02   1.00800           0
      3599 MEMB     27       PA       H15S     hL       0.929200E-02   1.00800           0
      3600 MEMB     27       PA       C114     cD      -0.200860E-01   12.0100           0
      3601 MEMB     27       PA       H14R     hL       0.159290E-01   1.00800           0
      3602 MEMB     27       PA       H14S     hL       0.159290E-01   1.00800           0
      3603 MEMB     27       PA       C113     cD      -0.330960E-01   12.0100           0
      3604 MEMB     27       PA       H13R     hL       0.146210E-01   1.00800           0
      3605 MEMB     27       PA       H13S     hL       0.146210E-01   1.00800           0
      3606 MEMB     27       PA       C112     cD      -0.276330E-01   12.0100           0
      3607 MEMB     27       PA       H12R     hL       0.113680E-01   1.00800           0
      3608 MEMB     27       PA       H12S     hL       0.113680E-01   1.00800           0
      3609 MEMB     27       PA       C111     cD      -0.252060E-01   12.0100           0
      3610 MEMB     27       PA       H11R     hL       0.143340E-01   1.00800           0
      3611 MEMB     27       PA       H11S     hL       0.143340E-01   1.00800           0
      3612 MEMB     27       PA       C110     cD      -0.288310E-01   12.0100           0
      3613 MEMB     27       PA       H10R     hL       0.146910E-01   1.00800           0
      3614 MEMB     27       PA       H10S     hL       0.146910E-01   1.00800           0
      3615 MEMB     27       PA       C19      cD      -0.304720E-01   12.0100           0
      3616 MEMB     27       PA       H9R      hL       0.138970E-01   1.00800           0
      3617 MEMB     27       PA       H9S      hL       0.138970E-01   1.00800           0
      3618 MEMB     27       PA       C18      cD      -0.157930E-01   12.0100           0
      3619 MEMB     27       PA       H8R      hL       0.906700E-02   1.00800           0
      3620 MEMB     27       PA       H8S      hL       0.906700E-02   1.00800           0
      3621 MEMB     27       PA       C17      cD      -0.196300E-01   12.0100           0
      3622 MEMB     27       PA       H7R      hL       0.110410E-01   1.00800           0
      3623 MEMB     27       PA       H7S      hL       0.110410E-01   1.00800           0
      3624 MEMB     27       PA       C16      cD      -0.244270E-01   12.0100           0
      3625 MEMB     27       PA       H6R      hL       0.133340E-01   1.00800           0
      3626 MEMB     27       PA       H6S      hL       0.133340E-01   1.00800           0
      3627 MEMB     27       PA       C15      cD      -0.293870E-01   12.0100           0
      3628 MEMB     27       PA       H5R      hL       0.167630E-01   1.00800           0
      3629 MEMB     27       PA       H5S      hL       0.167630E-01   1.00800           0
      3630 MEMB     27       PA       C14      cD      -0.300990E-01   12.0100           0
      3631 MEMB     27       PA       H4R      hL       0.208770E-01   1.00800           0
      3632 MEMB     27       PA       H4S      hL       0.208770E-01   1.00800           0
      3633 MEMB     27       PA       C13      cD      -0.488200E-02   12.0100           0
      3634 MEMB     27       PA       H3R      hL       0.190070E-01   1.00800           0
      3635 MEMB     27       PA       H3S      hL       0.190070E-01   1.00800           0
      3636 MEMB     27       PA       C12      cD      -0.149259       12.0100           0
      3637 MEMB     27       PA       H2R      hL       0.473450E-01   1.00800           0
      3638 MEMB     27       PA       H2S      hL       0.473450E-01   1.00800           0
      3639 MEMB     27       PC       C11      cC       0.910403       12.0100           0
      3640 MEMB     27       PC       O12      oC      -0.671566       16.0000           0
      3641 MEMB     27       PC       O11      oS      -0.575489       16.0000           0
      3642 MEMB     27       PC       C1       cA       0.196939       12.0100           0
      3643 MEMB     27       PC       HR       hE       0.704690E-01   1.00800           0
      3644 MEMB     27       PC       HS       hE       0.704690E-01   1.00800           0
      3645 MEMB     27       PC       C2       cA       0.281242       12.0100           0
      3646 MEMB     27       PC       HX       hE       0.632530E-01   1.00800           0
      3647 MEMB     27       PC       C3       cA       0.174590E-01   12.0100           0
      3648 MEMB     27       PC       HA       hE       0.955910E-01   1.00800           0
      3649 MEMB     27       PC       HB       hE       0.955910E-01   1.00800           0
      3650 MEMB     27       PC       O31      oT      -0.509480       16.0000           0
      3651 MEMB     27       PC       P31      pA       1.339721       30.9700           0
      3652 MEMB     27       PC       O32      oT      -0.508176       16.0000           0
      3653 MEMB     27       PC       C31      cA       0.166801       12.0100           0
      3654 MEMB     27       PC       H1A      hE       0.785340E-01   1.00800           0
      3655 MEMB     27       PC       H1B      hE       0.785340E-01   1.00800           0
      3656 MEMB     27       PC       C32      cA      -0.170824       12.0100           0
      3657 MEMB     27       PC       H2A      hX       0.136415       1.00800           0
      3658 MEMB     27       PC       H2B      hX       0.136415       1.00800           0
      3659 MEMB     27       PC       N31      nA       0.245262       14.0100           0
      3660 MEMB     27       PC       C33      cA      -0.338973       12.0100           0
      3661 MEMB     27       PC       H3A      hX       0.172230       1.00800           0
      3662 MEMB     27       PC       H3B      hX       0.172230       1.00800           0
      3663 MEMB     27       PC       H3C      hX       0.172230       1.00800           0
      3664 MEMB     27       PC       C34      cA      -0.338973       12.0100           0
      3665 MEMB     27       PC       H4A      hX       0.172230       1.00800           0
      3666 MEMB     27       PC       H4B      hX       0.172230       1.00800           0
      3667 MEMB     27       PC       H4C      hX       0.172230       1.00800           0
      3668 MEMB     27       PC       C35      cA      -0.338973       12.0100           0
      3669 MEMB     27       PC       H5A      hX       0.172230       1.00800           0
      3670 MEMB     27       PC       H5B      hX       0.172230       1.00800           0
      3671 MEMB     27       PC       H5C      hX       0.172230       1.00800           0
      3672 MEMB     27       PC       O33      oP      -0.875812       16.0000           0
      3673 MEMB     27       PC       O34      oP      -0.875812       16.0000           0
      3674 MEMB     27       PC       O21      oS      -0.552948       16.0000           0
      3675 MEMB     27       PC       C21      cC       0.897613       12.0100           0
      3676 MEMB     27       PC       O22      oC      -0.673755       16.0000           0
      3677 MEMB     27       OL       C12      cD      -0.143418       12.0100           0
      3678 MEMB     27       OL       H2R      hL       0.428610E-01   1.00800           0
      3679 MEMB     27       OL       H2S      hL       0.428610E-01   1.00800           0
      3680 MEMB     27       OL       C13      cD       0.161900E-02   12.0100           0
      3681 MEMB     27       OL       H3R      hL       0.195290E-01   1.00800           0
      3682 MEMB     27       OL       H3S      hL       0.195290E-01   1.00800           0
      3683 MEMB     27       OL       C14      cD      -0.229600E-01   12.0100           0
      3684 MEMB     27       OL       H4R      hL       0.181340E-01   1.00800           0
      3685 MEMB     27       OL       H4S      hL       0.181340E-01   1.00800           0
      3686 MEMB     27       OL       C15      cD      -0.166920E-01   12.0100           0
      3687 MEMB     27       OL       H5R      hL       0.869000E-02   1.00800           0
      3688 MEMB     27       OL       H5S      hL       0.869000E-02   1.00800           0
      3689 MEMB     27       OL       C16      cD      -0.237890E-01   12.0100           0
      3690 MEMB     27       OL       H6R      hL       0.926600E-02   1.00800           0
      3691 MEMB     27       OL       H6S      hL       0.926600E-02   1.00800           0
      3692 MEMB     27       OL       C17      cD      -0.174950E-01   12.0100           0
      3693 MEMB     27       OL       H7R      hL       0.195980E-01   1.00800           0
      3694 MEMB     27       OL       H7S      hL       0.195980E-01   1.00800           0
      3695 MEMB     27       OL       C18      cD       0.317750E-01   12.0100           0
      3696 MEMB     27       OL       H8R      hL       0.326850E-01   1.00800           0
      3697 MEMB     27       OL       H8S      hL       0.326850E-01   1.00800           0
      3698 MEMB     27       OL       C19      cB      -0.244228       12.0100           0
      3699 MEMB     27       OL       H9R      hB       0.131512       1.00800           0
      3700 MEMB     27       OL       C110     cB      -0.239284       12.0100           0
      3701 MEMB     27       OL       H10R     hB       0.126878       1.00800           0
      3702 MEMB     27       OL       C111     cD       0.290590E-01   12.0100           0
      3703 MEMB     27       OL       H11R     hL       0.335310E-01   1.00800           0
      3704 MEMB     27       OL       H11S     hL       0.335310E-01   1.00800           0
      3705 MEMB     27       OL       C112     cD      -0.263530E-01   12.0100           0
      3706 MEMB     27       OL       H12R     hL       0.197170E-01   1.00800           0
      3707 MEMB     27       OL       H12S     hL       0.197170E-01   1.00800           0
      3708 MEMB     27       OL       C113     cD      -0.182570E-01   12.0100           0
      3709 MEMB     27       OL       H13R     hL       0.138000E-01   1.00800           0
      3710 MEMB     27       OL       H13S     hL       0.138000E-01   1.00800           0
      3711 MEMB     27       OL       C114     cD      -0.248490E-01   12.0100           0
      3712 MEMB     27       OL       H14R     hL       0.857200E-02   1.00800           0
      3713 MEMB     27       OL       H14S     hL       0.857200E-02   1.00800           0
      3714 MEMB     27       OL       C115     cD      -0.232470E-01   12.0100           0
      3715 MEMB     27       OL       H15R     hL       0.104030E-01   1.00800           0
      3716 MEMB     27       OL       H15S     hL       0.104030E-01   1.00800           0
      3717 MEMB     27       OL       C116     cD      -0.124880E-01   12.0100           0
      3718 MEMB     27       OL       H16R     hL       0.136590E-01   1.00800           0
      3719 MEMB     27       OL       H16S     hL       0.136590E-01   1.00800           0
      3720 MEMB     27       OL       C117     cD       0.868400E-02   12.0100           0
      3721 MEMB     27       OL       H17R     hL       0.100260E-01   1.00800           0
      3722 MEMB     27       OL       H17S     hL       0.100260E-01   1.00800           0
      3723 MEMB     27       OL       C118     cD      -0.117290       12.0100           0
      3724 MEMB     27       OL       H18R     hL       0.266270E-01   1.00800           0
      3725 MEMB     27       OL       H18S     hL       0.266270E-01   1.00800           0
      3726 MEMB     27       OL       H18T     hL       0.266270E-01   1.00800           0
      3727 MEMB     28       PA       C116     cD      -0.125447       12.0100           0
      3728 MEMB     28       PA       H16R     hL       0.290470E-01   1.00800           0
      3729 MEMB     28       PA       H16S     hL       0.290470E-01   1.00800           0
      3730 MEMB     28       PA       H16T     hL       0.290470E-01   1.00800           0
      3731 MEMB     28       PA       C115     cD       0.139750E-01   12.0100           0
      3732 MEMB     28       PA       H15R     hL       0.929200E-02   1.00800           0
      3733 MEMB     28       PA       H15S     hL       0.929200E-02   1.00800           0
      3734 MEMB     28       PA       C114     cD      -0.200860E-01   12.0100           0
      3735 MEMB     28       PA       H14R     hL       0.159290E-01   1.00800           0
      3736 MEMB     28       PA       H14S     hL       0.159290E-01   1.00800           0
      3737 MEMB     28       PA       C113     cD      -0.330960E-01   12.0100           0
      3738 MEMB     28       PA       H13R     hL       0.146210E-01   1.00800           0
      3739 MEMB     28       PA       H13S     hL       0.146210E-01   1.00800           0
      3740 MEMB     28       PA       C112     cD      -0.276330E-01   12.0100           0
      3741 MEMB     28       PA       H12R     hL       0.113680E-01   1.00800           0
      3742 MEMB     28       PA       H12S     hL       0.113680E-01   1.00800           0
      3743 MEMB     28       PA       C111     cD      -0.252060E-01   12.0100           0
      3744 MEMB     28       PA       H11R     hL       0.143340E-01   1.00800           0
      3745 MEMB     28       PA       H11S     hL       0.143340E-01   1.00800           0
      3746 MEMB     28       PA       C110     cD      -0.288310E-01   12.0100           0
      3747 MEMB     28       PA       H10R     hL       0.146910E-01   1.00800           0
      3748 MEMB     28       PA       H10S     hL       0.146910E-01   1.00800           0
      3749 MEMB     28       PA       C19      cD      -0.304720E-01   12.0100           0
      3750 MEMB     28       PA       H9R      hL       0.138970E-01   1.00800           0
      3751 MEMB     28       PA       H9S      hL       0.138970E-01   1.00800           0
      3752 MEMB     28       PA       C18      cD      -0.157930E-01   12.0100           0
      3753 MEMB     28       PA       H8R      hL       0.906700E-02   1.00800           0
      3754 MEMB     28       PA       H8S      hL       0.906700E-02   1.00800           0
      3755 MEMB     28       PA       C17      cD      -0.196300E-01   12.0100           0
      3756 MEMB     28       PA       H7R      hL       0.110410E-01   1.00800           0
      3757 MEMB     28       PA       H7S      hL       0.110410E-01   1.00800           0
      3758 MEMB     28       PA       C16      cD      -0.244270E-01   12.0100           0
      3759 MEMB     28       PA       H6R      hL       0.133340E-01   1.00800           0
      3760 MEMB     28       PA       H6S      hL       0.133340E-01   1.00800           0
      3761 MEMB     28       PA       C15      cD      -0.293870E-01   12.0100           0
      3762 MEMB     28       PA       H5R      hL       0.167630E-01   1.00800           0
      3763 MEMB     28       PA       H5S      hL       0.167630E-01   1.00800           0
      3764 MEMB     28       PA       C14      cD      -0.300990E-01   12.0100           0
      3765 MEMB     28       PA       H4R      hL       0.208770E-01   1.00800           0
      3766 MEMB     28       PA       H4S      hL       0.208770E-01   1.00800           0
      3767 MEMB     28       PA       C13      cD      -0.488200E-02   12.0100           0
      3768 MEMB     28       PA       H3R      hL       0.190070E-01   1.00800           0
      3769 MEMB     28       PA       H3S      hL       0.190070E-01   1.00800           0
      3770 MEMB     28       PA       C12      cD      -0.149259       12.0100           0
      3771 MEMB     28       PA       H2R      hL       0.473450E-01   1.00800           0
      3772 MEMB     28       PA       H2S      hL       0.473450E-01   1.00800           0
      3773 MEMB     28       PC       C11      cC       0.910403       12.0100           0
      3774 MEMB     28       PC       O12      oC      -0.671566       16.0000           0
      3775 MEMB     28       PC       O11      oS      -0.575489       16.0000           0
      3776 MEMB     28       PC       C1       cA       0.196939       12.0100           0
      3777 MEMB     28       PC       HR       hE       0.704690E-01   1.00800           0
      3778 MEMB     28       PC       HS       hE       0.704690E-01   1.00800           0
      3779 MEMB     28       PC       C2       cA       0.281242       12.0100           0
      3780 MEMB     28       PC       HX       hE       0.632530E-01   1.00800           0
      3781 MEMB     28       PC       C3       cA       0.174590E-01   12.0100           0
      3782 MEMB     28       PC       HA       hE       0.955910E-01   1.00800           0
      3783 MEMB     28       PC       HB       hE       0.955910E-01   1.00800           0
      3784 MEMB     28       PC       O31      oT      -0.509480       16.0000           0
      3785 MEMB     28       PC       P31      pA       1.339721       30.9700           0
      3786 MEMB     28       PC       O32      oT      -0.508176       16.0000           0
      3787 MEMB     28       PC       C31      cA       0.166801       12.0100           0
      3788 MEMB     28       PC       H1A      hE       0.785340E-01   1.00800           0
      3789 MEMB     28       PC       H1B      hE       0.785340E-01   1.00800           0
      3790 MEMB     28       PC       C32      cA      -0.170824       12.0100           0
      3791 MEMB     28       PC       H2A      hX       0.136415       1.00800           0
      3792 MEMB     28       PC       H2B      hX       0.136415       1.00800           0
      3793 MEMB     28       PC       N31      nA       0.245262       14.0100           0
      3794 MEMB     28       PC       C33      cA      -0.338973       12.0100           0
      3795 MEMB     28       PC       H3A      hX       0.172230       1.00800           0
      3796 MEMB     28       PC       H3B      hX       0.172230       1.00800           0
      3797 MEMB     28       PC       H3C      hX       0.172230       1.00800           0
      3798 MEMB     28       PC       C34      cA      -0.338973       12.0100           0
      3799 MEMB     28       PC       H4A      hX       0.172230       1.00800           0
      3800 MEMB     28       PC       H4B      hX       0.172230       1.00800           0
      3801 MEMB     28       PC       H4C      hX       0.172230       1.00800           0
      3802 MEMB     28       PC       C35      cA      -0.338973       12.0100           0
      3803 MEMB     28       PC       H5A      hX       0.172230       1.00800           0
      3804 MEMB     28       PC       H5B      hX       0.172230       1.00800           0
      3805 MEMB     28       PC       H5C      hX       0.172230       1.00800           0
      3806 MEMB     28       PC       O33      oP      -0.875812       16.0000           0
      3807 MEMB     28       PC       O34      oP      -0.875812       16.0000           0
      3808 MEMB     28       PC       O21      oS      -0.552948       16.0000           0
      3809 MEMB     28       PC       C21      cC       0.897613       12.0100           0
      3810 MEMB     28       PC       O22      oC      -0.673755       16.0000           0
      3811 MEMB     28       OL       C12      cD      -0.143418       12.0100           0
      3812 MEMB     28       OL       H2R      hL       0.428610E-01   1.00800           0
      3813 MEMB     28       OL       H2S      hL       0.428610E-01   1.00800           0
      3814 MEMB     28       OL       C13      cD       0.161900E-02   12.0100           0
      3815 MEMB     28       OL       H3R      hL       0.195290E-01   1.00800           0
      3816 MEMB     28       OL       H3S      hL       0.195290E-01   1.00800           0
      3817 MEMB     28       OL       C14      cD      -0.229600E-01   12.0100           0
      3818 MEMB     28       OL       H4R      hL       0.181340E-01   1.00800           0
      3819 MEMB     28       OL       H4S      hL       0.181340E-01   1.00800           0
      3820 MEMB     28       OL       C15      cD      -0.166920E-01   12.0100           0
      3821 MEMB     28       OL       H5R      hL       0.869000E-02   1.00800           0
      3822 MEMB     28       OL       H5S      hL       0.869000E-02   1.00800           0
      3823 MEMB     28       OL       C16      cD      -0.237890E-01   12.0100           0
      3824 MEMB     28       OL       H6R      hL       0.926600E-02   1.00800           0
      3825 MEMB     28       OL       H6S      hL       0.926600E-02   1.00800           0
      3826 MEMB     28       OL       C17      cD      -0.174950E-01   12.0100           0
      3827 MEMB     28       OL       H7R      hL       0.195980E-01   1.00800           0
      3828 MEMB     28       OL       H7S      hL       0.195980E-01   1.00800           0
      3829 MEMB     28       OL       C18      cD       0.317750E-01   12.0100           0
      3830 MEMB     28       OL       H8R      hL       0.326850E-01   1.00800           0
      3831 MEMB     28       OL       H8S      hL       0.326850E-01   1.00800           0
      3832 MEMB     28       OL       C19      cB      -0.244228       12.0100           0
      3833 MEMB     28       OL       H9R      hB       0.131512       1.00800           0
      3834 MEMB     28       OL       C110     cB      -0.239284       12.0100           0
      3835 MEMB     28       OL       H10R     hB       0.126878       1.00800           0
      3836 MEMB     28       OL       C111     cD       0.290590E-01   12.0100           0
      3837 MEMB     28       OL       H11R     hL       0.335310E-01   1.00800           0
      3838 MEMB     28       OL       H11S     hL       0.335310E-01   1.00800           0
      3839 MEMB     28       OL       C112     cD      -0.263530E-01   12.0100           0
      3840 MEMB     28       OL       H12R     hL       0.197170E-01   1.00800           0
      3841 MEMB     28       OL       H12S     hL       0.197170E-01   1.00800           0
      3842 MEMB     28       OL       C113     cD      -0.182570E-01   12.0100           0
      3843 MEMB     28       OL       H13R     hL       0.138000E-01   1.00800           0
      3844 MEMB     28       OL       H13S     hL       0.138000E-01   1.00800           0
      3845 MEMB     28       OL       C114     cD      -0.248490E-01   12.0100           0
      3846 MEMB     28       OL       H14R     hL       0.857200E-02   1.00800           0
      3847 MEMB     28       OL       H14S     hL       0.857200E-02   1.00800           0
      3848 MEMB     28       OL       C115     cD      -0.232470E-01   12.0100           0
      3849 MEMB     28       OL       H15R     hL       0.104030E-01   1.00800           0
      3850 MEMB     28       OL       H15S     hL       0.104030E-01   1.00800           0
      3851 MEMB     28       OL       C116     cD      -0.124880E-01   12.0100           0
      3852 MEMB     28       OL       H16R     hL       0.136590E-01   1.00800           0
      3853 MEMB     28       OL       H16S     hL       0.136590E-01   1.00800           0
      3854 MEMB     28       OL       C117     cD       0.868400E-02   12.0100           0
      3855 MEMB     28       OL       H17R     hL       0.100260E-01   1.00800           0
      3856 MEMB     28       OL       H17S     hL       0.100260E-01   1.00800           0
      3857 MEMB     28       OL       C118     cD      -0.117290       12.0100           0
      3858 MEMB     28       OL       H18R     hL       0.266270E-01   1.00800           0
      3859 MEMB     28       OL       H18S     hL       0.266270E-01   1.00800           0
      3860 MEMB     28       OL       H18T     hL       0.266270E-01   1.00800           0
      3861 MEMB     29       PA       C116     cD      -0.125447       12.0100           0
      3862 MEMB     29       PA       H16R     hL       0.290470E-01   1.00800           0
      3863 MEMB     29       PA       H16S     hL       0.290470E-01   1.00800           0
      3864 MEMB     29       PA       H16T     hL       0.290470E-01   1.00800           0
      3865 MEMB     29       PA       C115     cD       0.139750E-01   12.0100           0
      3866 MEMB     29       PA       H15R     hL       0.929200E-02   1.00800           0
      3867 MEMB     29       PA       H15S     hL       0.929200E-02   1.00800           0
      3868 MEMB     29       PA       C114     cD      -0.200860E-01   12.0100           0
      3869 MEMB     29       PA       H14R     hL       0.159290E-01   1.00800           0
      3870 MEMB     29       PA       H14S     hL       0.159290E-01   1.00800           0
      3871 MEMB     29       PA       C113     cD      -0.330960E-01   12.0100           0
      3872 MEMB     29       PA       H13R     hL       0.146210E-01   1.00800           0
      3873 MEMB     29       PA       H13S     hL       0.146210E-01   1.00800           0
      3874 MEMB     29       PA       C112     cD      -0.276330E-01   12.0100           0
      3875 MEMB     29       PA       H12R     hL       0.113680E-01   1.00800           0
      3876 MEMB     29       PA       H12S     hL       0.113680E-01   1.00800           0
      3877 MEMB     29       PA       C111     cD      -0.252060E-01   12.0100           0
      3878 MEMB     29       PA       H11R     hL       0.143340E-01   1.00800           0
      3879 MEMB     29       PA       H11S     hL       0.143340E-01   1.00800           0
      3880 MEMB     29       PA       C110     cD      -0.288310E-01   12.0100           0
      3881 MEMB     29       PA       H10R     hL       0.146910E-01   1.00800           0
      3882 MEMB     29       PA       H10S     hL       0.146910E-01   1.00800           0
      3883 MEMB     29       PA       C19      cD      -0.304720E-01   12.0100           0
      3884 MEMB     29       PA       H9R      hL       0.138970E-01   1.00800           0
      3885 MEMB     29       PA       H9S      hL       0.138970E-01   1.00800           0
      3886 MEMB     29       PA       C18      cD      -0.157930E-01   12.0100           0
      3887 MEMB     29       PA       H8R      hL       0.906700E-02   1.00800           0
      3888 MEMB     29       PA       H8S      hL       0.906700E-02   1.00800           0
      3889 MEMB     29       PA       C17      cD      -0.196300E-01   12.0100           0
      3890 MEMB     29       PA       H7R      hL       0.110410E-01   1.00800           0
      3891 MEMB     29       PA       H7S      hL       0.110410E-01   1.00800           0
      3892 MEMB     29       PA       C16      cD      -0.244270E-01   12.0100           0
      3893 MEMB     29       PA       H6R      hL       0.133340E-01   1.00800           0
      3894 MEMB     29       PA       H6S      hL       0.133340E-01   1.00800           0
      3895 MEMB     29       PA       C15      cD      -0.293870E-01   12.0100           0
      3896 MEMB     29       PA       H5R      hL       0.167630E-01   1.00800           0
      3897 MEMB     29       PA       H5S      hL       0.167630E-01   1.00800           0
      3898 MEMB     29       PA       C14      cD      -0.300990E-01   12.0100           0
      3899 MEMB     29       PA       H4R      hL       0.208770E-01   1.00800           0
      3900 MEMB     29       PA       H4S      hL       0.208770E-01   1.00800           0
      3901 MEMB     29       PA       C13      cD      -0.488200E-02   12.0100           0
      3902 MEMB     29       PA       H3R      hL       0.190070E-01   1.00800           0
      3903 MEMB     29       PA       H3S      hL       0.190070E-01   1.00800           0
      3904 MEMB     29       PA       C12      cD      -0.149259       12.0100           0
      3905 MEMB     29       PA       H2R      hL       0.473450E-01   1.00800           0
      3906 MEMB     29       PA       H2S      hL       0.473450E-01   1.00800           0
      3907 MEMB     29       PC       C11      cC       0.910403       12.0100           0
      3908 MEMB     29       PC       O12      oC      -0.671566       16.0000           0
      3909 MEMB     29       PC       O11      oS      -0.575489       16.0000           0
      3910 MEMB     29       PC       C1       cA       0.196939       12.0100           0
      3911 MEMB     29       PC       HR       hE       0.704690E-01   1.00800           0
      3912 MEMB     29       PC       HS       hE       0.704690E-01   1.00800           0
      3913 MEMB     29       PC       C2       cA       0.281242       12.0100           0
      3914 MEMB     29       PC       HX       hE       0.632530E-01   1.00800           0
      3915 MEMB     29       PC       C3       cA       0.174590E-01   12.0100           0
      3916 MEMB     29       PC       HA       hE       0.955910E-01   1.00800           0
      3917 MEMB     29       PC       HB       hE       0.955910E-01   1.00800           0
      3918 MEMB     29       PC       O31      oT      -0.509480       16.0000           0
      3919 MEMB     29       PC       P31      pA       1.339721       30.9700           0
      3920 MEMB     29       PC       O32      oT      -0.508176       16.0000           0
      3921 MEMB     29       PC       C31      cA       0.166801       12.0100           0
      3922 MEMB     29       PC       H1A      hE       0.785340E-01   1.00800           0
      3923 MEMB     29       PC       H1B      hE       0.785340E-01   1.00800           0
      3924 MEMB     29       PC       C32      cA      -0.170824       12.0100           0
      3925 MEMB     29       PC       H2A      hX       0.136415       1.00800           0
      3926 MEMB     29       PC       H2B      hX       0.136415       1.00800           0
      3927 MEMB     29       PC       N31      nA       0.245262       14.0100           0
      3928 MEMB     29       PC       C33      cA      -0.338973       12.0100           0
      3929 MEMB     29       PC       H3A      hX       0.172230       1.00800           0
      3930 MEMB     29       PC       H3B      hX       0.172230       1.00800           0
      3931 MEMB     29       PC       H3C      hX       0.172230       1.00800           0
      3932 MEMB     29       PC       C34      cA      -0.338973       12.0100           0
      3933 MEMB     29       PC       H4A      hX       0.172230       1.00800           0
      3934 MEMB     29       PC       H4B      hX       0.172230       1.00800           0
      3935 MEMB     29       PC       H4C      hX       0.172230       1.00800           0
      3936 MEMB     29       PC       C35      cA      -0.338973       12.0100           0
      3937 MEMB     29       PC       H5A      hX       0.172230       1.00800           0
      3938 MEMB     29       PC       H5B      hX       0.172230       1.00800           0
      3939 MEMB     29       PC       H5C      hX       0.172230       1.00800           0
      3940 MEMB     29       PC       O33      oP      -0.875812       16.0000           0
      3941 MEMB     29       PC       O34      oP      -0.875812       16.0000           0
      3942 MEMB     29       PC       O21      oS      -0.552948       16.0000           0
      3943 MEMB     29       PC       C21      cC       0.897613       12.0100           0
      3944 MEMB     29       PC       O22      oC      -0.673755       16.0000           0
      3945 MEMB     29       OL       C12      cD      -0.143418       12.0100           0
      3946 MEMB     29       OL       H2R      hL       0.428610E-01   1.00800           0
      3947 MEMB     29       OL       H2S      hL       0.428610E-01   1.00800           0
      3948 MEMB     29       OL       C13      cD       0.161900E-02   12.0100           0
      3949 MEMB     29       OL       H3R      hL       0.195290E-01   1.00800           0
      3950 MEMB     29       OL       H3S      hL       0.195290E-01   1.00800           0
      3951 MEMB     29       OL       C14      cD      -0.229600E-01   12.0100           0
      3952 MEMB     29       OL       H4R      hL       0.181340E-01   1.00800           0
      3953 MEMB     29       OL       H4S      hL       0.181340E-01   1.00800           0
      3954 MEMB     29       OL       C15      cD      -0.166920E-01   12.0100           0
      3955 MEMB     29       OL       H5R      hL       0.869000E-02   1.00800           0
      3956 MEMB     29       OL       H5S      hL       0.869000E-02   1.00800           0
      3957 MEMB     29       OL       C16      cD      -0.237890E-01   12.0100           0
      3958 MEMB     29       OL       H6R      hL       0.926600E-02   1.00800           0
      3959 MEMB     29       OL       H6S      hL       0.926600E-02   1.00800           0
      3960 MEMB     29       OL       C17      cD      -0.174950E-01   12.0100           0
      3961 MEMB     29       OL       H7R      hL       0.195980E-01   1.00800           0
      3962 MEMB     29       OL       H7S      hL       0.195980E-01   1.00800           0
      3963 MEMB     29       OL       C18      cD       0.317750E-01   12.0100           0
      3964 MEMB     29       OL       H8R      hL       0.326850E-01   1.00800           0
      3965 MEMB     29       OL       H8S      hL       0.326850E-01   1.00800           0
      3966 MEMB     29       OL       C19      cB      -0.244228       12.0100           0
      3967 MEMB     29       OL       H9R      hB       0.131512       1.00800           0
      3968 MEMB     29       OL       C110     cB      -0.239284       12.0100           0
      3969 MEMB     29       OL       H10R     hB       0.126878       1.00800           0
      3970 MEMB     29       OL       C111     cD       0.290590E-01   12.0100           0
      3971 MEMB     29       OL       H11R     hL       0.335310E-01   1.00800           0
      3972 MEMB     29       OL       H11S     hL       0.335310E-01   1.00800           0
      3973 MEMB     29       OL       C112     cD      -0.263530E-01   12.0100           0
      3974 MEMB     29       OL       H12R     hL       0.197170E-01   1.00800           0
      3975 MEMB     29       OL       H12S     hL       0.197170E-01   1.00800           0
      3976 MEMB     29       OL       C113     cD      -0.182570E-01   12.0100           0
      3977 MEMB     29       OL       H13R     hL       0.138000E-01   1.00800           0
      3978 MEMB     29       OL       H13S     hL       0.138000E-01   1.00800           0
      3979 MEMB     29       OL       C114     cD      -0.248490E-01   12.0100           0
      3980 MEMB     29       OL       H14R     hL       0.857200E-02   1.00800           0
      3981 MEMB     29       OL       H14S     hL       0.857200E-02   1.00800           0
      3982 MEMB     29       OL       C115     cD      -0.232470E-01   12.0100           0
      3983 MEMB     29       OL       H15R     hL       0.104030E-01   1.00800           0
      3984 MEMB     29       OL       H15S     hL       0.104030E-01   1.00800           0
      3985 MEMB     29       OL       C116     cD      -0.124880E-01   12.0100           0
      3986 MEMB     29       OL       H16R     hL       0.136590E-01   1.00800           0
      3987 MEMB     29       OL       H16S     hL       0.136590E-01   1.00800           0
      3988 MEMB     29       OL       C117     cD       0.868400E-02   12.0100           0
      3989 MEMB     29       OL       H17R     hL       0.100260E-01   1.00800           0
      3990 MEMB     29       OL       H17S     hL       0.100260E-01   1.00800           0
      3991 MEMB     29       OL       C118     cD      -0.117290       12.0100           0
      3992 MEMB     29       OL       H18R     hL       0.266270E-01   1.00800           0
      3993 MEMB     29       OL       H18S     hL       0.266270E-01   1.00800           0
      3994 MEMB     29       OL       H18T     hL       0.266270E-01   1.00800           0
      3995 MEMB     30       PA       C116     cD      -0.125447       12.0100           0
      3996 MEMB     30       PA       H16R     hL       0.290470E-01   1.00800           0
      3997 MEMB     30       PA       H16S     hL       0.290470E-01   1.00800           0
      3998 MEMB     30       PA       H16T     hL       0.290470E-01   1.00800           0
      3999 MEMB     30       PA       C115     cD       0.139750E-01   12.0100           0
      4000 MEMB     30       PA       H15R     hL       0.929200E-02   1.00800           0
      4001 MEMB     30       PA       H15S     hL       0.929200E-02   1.00800           0
      4002 MEMB     30       PA       C114     cD      -0.200860E-01   12.0100           0
      4003 MEMB     30       PA       H14R     hL       0.159290E-01   1.00800           0
      4004 MEMB     30       PA       H14S     hL       0.159290E-01   1.00800           0
      4005 MEMB     30       PA       C113     cD      -0.330960E-01   12.0100           0
      4006 MEMB     30       PA       H13R     hL       0.146210E-01   1.00800           0
      4007 MEMB     30       PA       H13S     hL       0.146210E-01   1.00800           0
      4008 MEMB     30       PA       C112     cD      -0.276330E-01   12.0100           0
      4009 MEMB     30       PA       H12R     hL       0.113680E-01   1.00800           0
      4010 MEMB     30       PA       H12S     hL       0.113680E-01   1.00800           0
      4011 MEMB     30       PA       C111     cD      -0.252060E-01   12.0100           0
      4012 MEMB     30       PA       H11R     hL       0.143340E-01   1.00800           0
      4013 MEMB     30       PA       H11S     hL       0.143340E-01   1.00800           0
      4014 MEMB     30       PA       C110     cD      -0.288310E-01   12.0100           0
      4015 MEMB     30       PA       H10R     hL       0.146910E-01   1.00800           0
      4016 MEMB     30       PA       H10S     hL       0.146910E-01   1.00800           0
      4017 MEMB     30       PA       C19      cD      -0.304720E-01   12.0100           0
      4018 MEMB     30       PA       H9R      hL       0.138970E-01   1.00800           0
      4019 MEMB     30       PA       H9S      hL       0.138970E-01   1.00800           0
      4020 MEMB     30       PA       C18      cD      -0.157930E-01   12.0100           0
      4021 MEMB     30       PA       H8R      hL       0.906700E-02   1.00800           0
      4022 MEMB     30       PA       H8S      hL       0.906700E-02   1.00800           0
      4023 MEMB     30       PA       C17      cD      -0.196300E-01   12.0100           0
      4024 MEMB     30       PA       H7R      hL       0.110410E-01   1.00800           0
      4025 MEMB     30       PA       H7S      hL       0.110410E-01   1.00800           0
      4026 MEMB     30       PA       C16      cD      -0.244270E-01   12.0100           0
      4027 MEMB     30       PA       H6R      hL       0.133340E-01   1.00800           0
      4028 MEMB     30       PA       H6S      hL       0.133340E-01   1.00800           0
      4029 MEMB     30       PA       C15      cD      -0.293870E-01   12.0100           0
      4030 MEMB     30       PA       H5R      hL       0.167630E-01   1.00800           0
      4031 MEMB     30       PA       H5S      hL       0.167630E-01   1.00800           0
      4032 MEMB     30       PA       C14      cD      -0.300990E-01   12.0100           0
      4033 MEMB     30       PA       H4R      hL       0.208770E-01   1.00800           0
      4034 MEMB     30       PA       H4S      hL       0.208770E-01   1.00800           0
      4035 MEMB     30       PA       C13      cD      -0.488200E-02   12.0100           0
      4036 MEMB     30       PA       H3R      hL       0.190070E-01   1.00800           0
      4037 MEMB     30       PA       H3S      hL       0.190070E-01   1.00800           0
      4038 MEMB     30       PA       C12      cD      -0.149259       12.0100           0
      4039 MEMB     30       PA       H2R      hL       0.473450E-01   1.00800           0
      4040 MEMB     30       PA       H2S      hL       0.473450E-01   1.00800           0
      4041 MEMB     30       PC       C11      cC       0.910403       12.0100           0
      4042 MEMB     30       PC       O12      oC      -0.671566       16.0000           0
      4043 MEMB     30       PC       O11      oS      -0.575489       16.0000           0
      4044 MEMB     30       PC       C1       cA       0.196939       12.0100           0
      4045 MEMB     30       PC       HR       hE       0.704690E-01   1.00800           0
      4046 MEMB     30       PC       HS       hE       0.704690E-01   1.00800           0
      4047 MEMB     30       PC       C2       cA       0.281242       12.0100           0
      4048 MEMB     30       PC       HX       hE       0.632530E-01   1.00800           0
      4049 MEMB     30       PC       C3       cA       0.174590E-01   12.0100           0
      4050 MEMB     30       PC       HA       hE       0.955910E-01   1.00800           0
      4051 MEMB     30       PC       HB       hE       0.955910E-01   1.00800           0
      4052 MEMB     30       PC       O31      oT      -0.509480       16.0000           0
      4053 MEMB     30       PC       P31      pA       1.339721       30.9700           0
      4054 MEMB     30       PC       O32      oT      -0.508176       16.0000           0
      4055 MEMB     30       PC       C31      cA       0.166801       12.0100           0
      4056 MEMB     30       PC       H1A      hE       0.785340E-01   1.00800           0
      4057 MEMB     30       PC       H1B      hE       0.785340E-01   1.00800           0
      4058 MEMB     30       PC       C32      cA      -0.170824       12.0100           0
      4059 MEMB     30       PC       H2A      hX       0.136415       1.00800           0
      4060 MEMB     30       PC       H2B      hX       0.136415       1.00800           0
      4061 MEMB     30       PC       N31      nA       0.245262       14.0100           0
      4062 MEMB     30       PC       C33      cA      -0.338973       12.0100           0
      4063 MEMB     30       PC       H3A      hX       0.172230       1.00800           0
      4064 MEMB     30       PC       H3B      hX       0.172230       1.00800           0
      4065 MEMB     30       PC       H3C      hX       0.172230       1.00800           0
      4066 MEMB     30       PC       C34      cA      -0.338973       12.0100           0
      4067 MEMB     30       PC       H4A      hX       0.172230       1.00800           0
      4068 MEMB     30       PC       H4B      hX       0.172230       1.00800           0
      4069 MEMB     30       PC       H4C      hX       0.172230       1.00800           0
      4070 MEMB     30       PC       C35      cA      -0.338973       12.0100           0
      4071 MEMB     30       PC       H5A      hX       0.172230       1.00800           0
      4072 MEMB     30       PC       H5B      hX       0.172230       1.00800           0
      4073 MEMB     30       PC       H5C      hX       0.172230       1.00800           0
      4074 MEMB     30       PC       O33      oP      -0.875812       16.0000           0
      4075 MEMB     30       PC       O34      oP      -0.875812       16.0000           0
      4076 MEMB     30       PC       O21      oS      -0.552948       16.0000           0
      4077 MEMB     30       PC       C21      cC       0.897613       12.0100           0
      4078 MEMB     30       PC       O22      oC      -0.673755       16.0000           0
      4079 MEMB     30       OL       C12      cD      -0.143418       12.0100           0
      4080 MEMB     30       OL       H2R      hL       0.428610E-01   1.00800           0
      4081 MEMB     30       OL       H2S      hL       0.428610E-01   1.00800           0
      4082 MEMB     30       OL       C13      cD       0.161900E-02   12.0100           0
      4083 MEMB     30       OL       H3R      hL       0.195290E-01   1.00800           0
      4084 MEMB     30       OL       H3S      hL       0.195290E-01   1.00800           0
      4085 MEMB     30       OL       C14      cD      -0.229600E-01   12.0100           0
      4086 MEMB     30       OL       H4R      hL       0.181340E-01   1.00800           0
      4087 MEMB     30       OL       H4S      hL       0.181340E-01   1.00800           0
      4088 MEMB     30       OL       C15      cD      -0.166920E-01   12.0100           0
      4089 MEMB     30       OL       H5R      hL       0.869000E-02   1.00800           0
      4090 MEMB     30       OL       H5S      hL       0.869000E-02   1.00800           0
      4091 MEMB     30       OL       C16      cD      -0.237890E-01   12.0100           0
      4092 MEMB     30       OL       H6R      hL       0.926600E-02   1.00800           0
      4093 MEMB     30       OL       H6S      hL       0.926600E-02   1.00800           0
      4094 MEMB     30       OL       C17      cD      -0.174950E-01   12.0100           0
      4095 MEMB     30       OL       H7R      hL       0.195980E-01   1.00800           0
      4096 MEMB     30       OL       H7S      hL       0.195980E-01   1.00800           0
      4097 MEMB     30       OL       C18      cD       0.317750E-01   12.0100           0
      4098 MEMB     30       OL       H8R      hL       0.326850E-01   1.00800           0
      4099 MEMB     30       OL       H8S      hL       0.326850E-01   1.00800           0
      4100 MEMB     30       OL       C19      cB      -0.244228       12.0100           0
      4101 MEMB     30       OL       H9R      hB       0.131512       1.00800           0
      4102 MEMB     30       OL       C110     cB      -0.239284       12.0100           0
      4103 MEMB     30       OL       H10R     hB       0.126878       1.00800           0
      4104 MEMB     30       OL       C111     cD       0.290590E-01   12.0100           0
      4105 MEMB     30       OL       H11R     hL       0.335310E-01   1.00800           0
      4106 MEMB     30       OL       H11S     hL       0.335310E-01   1.00800           0
      4107 MEMB     30       OL       C112     cD      -0.263530E-01   12.0100           0
      4108 MEMB     30       OL       H12R     hL       0.197170E-01   1.00800           0
      4109 MEMB     30       OL       H12S     hL       0.197170E-01   1.00800           0
      4110 MEMB     30       OL       C113     cD      -0.182570E-01   12.0100           0
      4111 MEMB     30       OL       H13R     hL       0.138000E-01   1.00800           0
      4112 MEMB     30       OL       H13S     hL       0.138000E-01   1.00800           0
      4113 MEMB     30       OL       C114     cD      -0.248490E-01   12.0100           0
      4114 MEMB     30       OL       H14R     hL       0.857200E-02   1.00800           0
      4115 MEMB     30       OL       H14S     hL       0.857200E-02   1.00800           0
      4116 MEMB     30       OL       C115     cD      -0.232470E-01   12.0100           0
      4117 MEMB     30       OL       H15R     hL       0.104030E-01   1.00800           0
      4118 MEMB     30       OL       H15S     hL       0.104030E-01   1.00800           0
      4119 MEMB     30       OL       C116     cD      -0.124880E-01   12.0100           0
      4120 MEMB     30       OL       H16R     hL       0.136590E-01   1.00800           0
      4121 MEMB     30       OL       H16S     hL       0.136590E-01   1.00800           0
      4122 MEMB     30       OL       C117     cD       0.868400E-02   12.0100           0
      4123 MEMB     30       OL       H17R     hL       0.100260E-01   1.00800           0
      4124 MEMB     30       OL       H17S     hL       0.100260E-01   1.00800           0
      4125 MEMB     30       OL       C118     cD      -0.117290       12.0100           0
      4126 MEMB     30       OL       H18R     hL       0.266270E-01   1.00800           0
      4127 MEMB     30       OL       H18S     hL       0.266270E-01   1.00800           0
      4128 MEMB     30       OL       H18T     hL       0.266270E-01   1.00800           0
      4129 MEMB     31       PA       C116     cD      -0.125447       12.0100           0
      4130 MEMB     31       PA       H16R     hL       0.290470E-01   1.00800           0
      4131 MEMB     31       PA       H16S     hL       0.290470E-01   1.00800           0
      4132 MEMB     31       PA       H16T     hL       0.290470E-01   1.00800           0
      4133 MEMB     31       PA       C115     cD       0.139750E-01   12.0100           0
      4134 MEMB     31       PA       H15R     hL       0.929200E-02   1.00800           0
      4135 MEMB     31       PA       H15S     hL       0.929200E-02   1.00800           0
      4136 MEMB     31       PA       C114     cD      -0.200860E-01   12.0100           0
      4137 MEMB     31       PA       H14R     hL       0.159290E-01   1.00800           0
      4138 MEMB     31       PA       H14S     hL       0.159290E-01   1.00800           0
      4139 MEMB     31       PA       C113     cD      -0.330960E-01   12.0100           0
      4140 MEMB     31       PA       H13R     hL       0.146210E-01   1.00800           0
      4141 MEMB     31       PA       H13S     hL       0.146210E-01   1.00800           0
      4142 MEMB     31       PA       C112     cD      -0.276330E-01   12.0100           0
      4143 MEMB     31       PA       H12R     hL       0.113680E-01   1.00800           0
      4144 MEMB     31       PA       H12S     hL       0.113680E-01   1.00800           0
      4145 MEMB     31       PA       C111     cD      -0.252060E-01   12.0100           0
      4146 MEMB     31       PA       H11R     hL       0.143340E-01   1.00800           0
      4147 MEMB     31       PA       H11S     hL       0.143340E-01   1.00800           0
      4148 MEMB     31       PA       C110     cD      -0.288310E-01   12.0100           0
      4149 MEMB     31       PA       H10R     hL       0.146910E-01   1.00800           0
      4150 MEMB     31       PA       H10S     hL       0.146910E-01   1.00800           0
      4151 MEMB     31       PA       C19      cD      -0.304720E-01   12.0100           0
      4152 MEMB     31       PA       H9R      hL       0.138970E-01   1.00800           0
      4153 MEMB     31       PA       H9S      hL       0.138970E-01   1.00800           0
      4154 MEMB     31       PA       C18      cD      -0.157930E-01   12.0100           0
      4155 MEMB     31       PA       H8R      hL       0.906700E-02   1.00800           0
      4156 MEMB     31       PA       H8S      hL       0.906700E-02   1.00800           0
      4157 MEMB     31       PA       C17      cD      -0.196300E-01   12.0100           0
      4158 MEMB     31       PA       H7R      hL       0.110410E-01   1.00800           0
      4159 MEMB     31       PA       H7S      hL       0.110410E-01   1.00800           0
      4160 MEMB     31       PA       C16      cD      -0.244270E-01   12.0100           0
      4161 MEMB     31       PA       H6R      hL       0.133340E-01   1.00800           0
      4162 MEMB     31       PA       H6S      hL       0.133340E-01   1.00800           0
      4163 MEMB     31       PA       C15      cD      -0.293870E-01   12.0100           0
      4164 MEMB     31       PA       H5R      hL       0.167630E-01   1.00800           0
      4165 MEMB     31       PA       H5S      hL       0.167630E-01   1.00800           0
      4166 MEMB     31       PA       C14      cD      -0.300990E-01   12.0100           0
      4167 MEMB     31       PA       H4R      hL       0.208770E-01   1.00800           0
      4168 MEMB     31       PA       H4S      hL       0.208770E-01   1.00800           0
      4169 MEMB     31       PA       C13      cD      -0.488200E-02   12.0100           0
      4170 MEMB     31       PA       H3R      hL       0.190070E-01   1.00800           0
      4171 MEMB     31       PA       H3S      hL       0.190070E-01   1.00800           0
      4172 MEMB     31       PA       C12      cD      -0.149259       12.0100           0
      4173 MEMB     31       PA       H2R      hL       0.473450E-01   1.00800           0
      4174 MEMB     31       PA       H2S      hL       0.473450E-01   1.00800           0
      4175 MEMB     31       PC       C11      cC       0.910403       12.0100           0
      4176 MEMB     31       PC       O12      oC      -0.671566       16.0000           0
      4177 MEMB     31       PC       O11      oS      -0.575489       16.0000           0
      4178 MEMB     31       PC       C1       cA       0.196939       12.0100           0
      4179 MEMB     31       PC       HR       hE       0.704690E-01   1.00800           0
      4180 MEMB     31       PC       HS       hE       0.704690E-01   1.00800           0
      4181 MEMB     31       PC       C2       cA       0.281242       12.0100           0
      4182 MEMB     31       PC       HX       hE       0.632530E-01   1.00800           0
      4183 MEMB     31       PC       C3       cA       0.174590E-01   12.0100           0
      4184 MEMB     31       PC       HA       hE       0.955910E-01   1.00800           0
      4185 MEMB     31       PC       HB       hE       0.955910E-01   1.00800           0
      4186 MEMB     31       PC       O31      oT      -0.509480       16.0000           0
      4187 MEMB     31       PC       P31      pA       1.339721       30.9700           0
      4188 MEMB     31       PC       O32      oT      -0.508176       16.0000           0
      4189 MEMB     31       PC       C31      cA       0.166801       12.0100           0
      4190 MEMB     31       PC       H1A      hE       0.785340E-01   1.00800           0
      4191 MEMB     31       PC       H1B      hE       0.785340E-01   1.00800           0
      4192 MEMB     31       PC       C32      cA      -0.170824       12.0100           0
      4193 MEMB     31       PC       H2A      hX       0.136415       1.00800           0
      4194 MEMB     31       PC       H2B      hX       0.136415       1.00800           0
      4195 MEMB     31       PC       N31      nA       0.245262       14.0100           0
      4196 MEMB     31       PC       C33      cA      -0.338973       12.0100           0
      4197 MEMB     31       PC       H3A      hX       0.172230       1.00800           0
      4198 MEMB     31       PC       H3B      hX       0.172230       1.00800           0
      4199 MEMB     31       PC       H3C      hX       0.172230       1.00800           0
      4200 MEMB     31       PC       C34      cA      -0.338973       12.0100           0
      4201 MEMB     31       PC       H4A      hX       0.172230       1.00800           0
      4202 MEMB     31       PC       H4B      hX       0.172230       1.00800           0
      4203 MEMB     31       PC       H4C      hX       0.172230       1.00800           0
      4204 MEMB     31       PC       C35      cA      -0.338973       12.0100           0
      4205 MEMB     31       PC       H5A      hX       0.172230       1.00800           0
      4206 MEMB     31       PC       H5B      hX       0.172230       1.00800           0
      4207 MEMB     31       PC       H5C      hX       0.172230       1.00800           0
      4208 MEMB     31       PC       O33      oP      -0.875812       16.0000           0
      4209 MEMB     31       PC       O34      oP      -0.875812       16.0000           0
      4210 MEMB     31       PC       O21      oS      -0.552948       16.0000           0
      4211 MEMB     31       PC       C21      cC       0.897613       12.0100           0
      4212 MEMB     31       PC       O22      oC      -0.673755       16.0000           0
      4213 MEMB     31       OL       C12      cD      -0.143418       12.0100           0
      4214 MEMB     31       OL       H2R      hL       0.428610E-01   1.00800           0
      4215 MEMB     31       OL       H2S      hL       0.428610E-01   1.00800           0
      4216 MEMB     31       OL       C13      cD       0.161900E-02   12.0100           0
      4217 MEMB     31       OL       H3R      hL       0.195290E-01   1.00800           0
      4218 MEMB     31       OL       H3S      hL       0.195290E-01   1.00800           0
      4219 MEMB     31       OL       C14      cD      -0.229600E-01   12.0100           0
      4220 MEMB     31       OL       H4R      hL       0.181340E-01   1.00800           0
      4221 MEMB     31       OL       H4S      hL       0.181340E-01   1.00800           0
      4222 MEMB     31       OL       C15      cD      -0.166920E-01   12.0100           0
      4223 MEMB     31       OL       H5R      hL       0.869000E-02   1.00800           0
      4224 MEMB     31       OL       H5S      hL       0.869000E-02   1.00800           0
      4225 MEMB     31       OL       C16      cD      -0.237890E-01   12.0100           0
      4226 MEMB     31       OL       H6R      hL       0.926600E-02   1.00800           0
      4227 MEMB     31       OL       H6S      hL       0.926600E-02   1.00800           0
      4228 MEMB     31       OL       C17      cD      -0.174950E-01   12.0100           0
      4229 MEMB     31       OL       H7R      hL       0.195980E-01   1.00800           0
      4230 MEMB     31       OL       H7S      hL       0.195980E-01   1.00800           0
      4231 MEMB     31       OL       C18      cD       0.317750E-01   12.0100           0
      4232 MEMB     31       OL       H8R      hL       0.326850E-01   1.00800           0
      4233 MEMB     31       OL       H8S      hL       0.326850E-01   1.00800           0
      4234 MEMB     31       OL       C19      cB      -0.244228       12.0100           0
      4235 MEMB     31       OL       H9R      hB       0.131512       1.00800           0
      4236 MEMB     31       OL       C110     cB      -0.239284       12.0100           0
      4237 MEMB     31       OL       H10R     hB       0.126878       1.00800           0
      4238 MEMB     31       OL       C111     cD       0.290590E-01   12.0100           0
      4239 MEMB     31       OL       H11R     hL       0.335310E-01   1.00800           0
      4240 MEMB     31       OL       H11S     hL       0.335310E-01   1.00800           0
      4241 MEMB     31       OL       C112     cD      -0.263530E-01   12.0100           0
      4242 MEMB     31       OL       H12R     hL       0.197170E-01   1.00800           0
      4243 MEMB     31       OL       H12S     hL       0.197170E-01   1.00800           0
      4244 MEMB     31       OL       C113     cD      -0.182570E-01   12.0100           0
      4245 MEMB     31       OL       H13R     hL       0.138000E-01   1.00800           0
      4246 MEMB     31       OL       H13S     hL       0.138000E-01   1.00800           0
      4247 MEMB     31       OL       C114     cD      -0.248490E-01   12.0100           0
      4248 MEMB     31       OL       H14R     hL       0.857200E-02   1.00800           0
      4249 MEMB     31       OL       H14S     hL       0.857200E-02   1.00800           0
      4250 MEMB     31       OL       C115     cD      -0.232470E-01   12.0100           0
      4251 MEMB     31       OL       H15R     hL       0.104030E-01   1.00800           0
      4252 MEMB     31       OL       H15S     hL       0.104030E-01   1.00800           0
      4253 MEMB     31       OL       C116     cD      -0.124880E-01   12.0100           0
      4254 MEMB     31       OL       H16R     hL       0.136590E-01   1.00800           0
      4255 MEMB     31       OL       H16S     hL       0.136590E-01   1.00800           0
      4256 MEMB     31       OL       C117     cD       0.868400E-02   12.0100           0
      4257 MEMB     31       OL       H17R     hL       0.100260E-01   1.00800           0
      4258 MEMB     31       OL       H17S     hL       0.100260E-01   1.00800           0
      4259 MEMB     31       OL       C118     cD      -0.117290       12.0100           0
      4260 MEMB     31       OL       H18R     hL       0.266270E-01   1.00800           0
      4261 MEMB     31       OL       H18S     hL       0.266270E-01   1.00800           0
      4262 MEMB     31       OL       H18T     hL       0.266270E-01   1.00800           0
      4263 MEMB     32       PA       C116     cD      -0.125447       12.0100           0
      4264 MEMB     32       PA       H16R     hL       0.290470E-01   1.00800           0
      4265 MEMB     32       PA       H16S     hL       0.290470E-01   1.00800           0
      4266 MEMB     32       PA       H16T     hL       0.290470E-01   1.00800           0
      4267 MEMB     32       PA       C115     cD       0.139750E-01   12.0100           0
      4268 MEMB     32       PA       H15R     hL       0.929200E-02   1.00800           0
      4269 MEMB     32       PA       H15S     hL       0.929200E-02   1.00800           0
      4270 MEMB     32       PA       C114     cD      -0.200860E-01   12.0100           0
      4271 MEMB     32       PA       H14R     hL       0.159290E-01   1.00800           0
      4272 MEMB     32       PA       H14S     hL       0.159290E-01   1.00800           0
      4273 MEMB     32       PA       C113     cD      -0.330960E-01   12.0100           0
      4274 MEMB     32       PA       H13R     hL       0.146210E-01   1.00800           0
      4275 MEMB     32       PA       H13S     hL       0.146210E-01   1.00800           0
      4276 MEMB     32       PA       C112     cD      -0.276330E-01   12.0100           0
      4277 MEMB     32       PA       H12R     hL       0.113680E-01   1.00800           0
      4278 MEMB     32       PA       H12S     hL       0.113680E-01   1.00800           0
      4279 MEMB     32       PA       C111     cD      -0.252060E-01   12.0100           0
      4280 MEMB     32       PA       H11R     hL       0.143340E-01   1.00800           0
      4281 MEMB     32       PA       H11S     hL       0.143340E-01   1.00800           0
      4282 MEMB     32       PA       C110     cD      -0.288310E-01   12.0100           0
      4283 MEMB     32       PA       H10R     hL       0.146910E-01   1.00800           0
      4284 MEMB     32       PA       H10S     hL       0.146910E-01   1.00800           0
      4285 MEMB     32       PA       C19      cD      -0.304720E-01   12.0100           0
      4286 MEMB     32       PA       H9R      hL       0.138970E-01   1.00800           0
      4287 MEMB     32       PA       H9S      hL       0.138970E-01   1.00800           0
      4288 MEMB     32       PA       C18      cD      -0.157930E-01   12.0100           0
      4289 MEMB     32       PA       H8R      hL       0.906700E-02   1.00800           0
      4290 MEMB     32       PA       H8S      hL       0.906700E-02   1.00800           0
      4291 MEMB     32       PA       C17      cD      -0.196300E-01   12.0100           0
      4292 MEMB     32       PA       H7R      hL       0.110410E-01   1.00800           0
      4293 MEMB     32       PA       H7S      hL       0.110410E-01   1.00800           0
      4294 MEMB     32       PA       C16      cD      -0.244270E-01   12.0100           0
      4295 MEMB     32       PA       H6R      hL       0.133340E-01   1.00800           0
      4296 MEMB     32       PA       H6S      hL       0.133340E-01   1.00800           0
      4297 MEMB     32       PA       C15      cD      -0.293870E-01   12.0100           0
      4298 MEMB     32       PA       H5R      hL       0.167630E-01   1.00800           0
      4299 MEMB     32       PA       H5S      hL       0.167630E-01   1.00800           0
      4300 MEMB     32       PA       C14      cD      -0.300990E-01   12.0100           0
      4301 MEMB     32       PA       H4R      hL       0.208770E-01   1.00800           0
      4302 MEMB     32       PA       H4S      hL       0.208770E-01   1.00800           0
      4303 MEMB     32       PA       C13      cD      -0.488200E-02   12.0100           0
      4304 MEMB     32       PA       H3R      hL       0.190070E-01   1.00800           0
      4305 MEMB     32       PA       H3S      hL       0.190070E-01   1.00800           0
      4306 MEMB     32       PA       C12      cD      -0.149259       12.0100           0
      4307 MEMB     32       PA       H2R      hL       0.473450E-01   1.00800           0
      4308 MEMB     32       PA       H2S      hL       0.473450E-01   1.00800           0
      4309 MEMB     32       PC       C11      cC       0.910403       12.0100           0
      4310 MEMB     32       PC       O12      oC      -0.671566       16.0000           0
      4311 MEMB     32       PC       O11      oS      -0.575489       16.0000           0
      4312 MEMB     32       PC       C1       cA       0.196939       12.0100           0
      4313 MEMB     32       PC       HR       hE       0.704690E-01   1.00800           0
      4314 MEMB     32       PC       HS       hE       0.704690E-01   1.00800           0
      4315 MEMB     32       PC       C2       cA       0.281242       12.0100           0
      4316 MEMB     32       PC       HX       hE       0.632530E-01   1.00800           0
      4317 MEMB     32       PC       C3       cA       0.174590E-01   12.0100           0
      4318 MEMB     32       PC       HA       hE       0.955910E-01   1.00800           0
      4319 MEMB     32       PC       HB       hE       0.955910E-01   1.00800           0
      4320 MEMB     32       PC       O31      oT      -0.509480       16.0000           0
      4321 MEMB     32       PC       P31      pA       1.339721       30.9700           0
      4322 MEMB     32       PC       O32      oT      -0.508176       16.0000           0
      4323 MEMB     32       PC       C31      cA       0.166801       12.0100           0
      4324 MEMB     32       PC       H1A      hE       0.785340E-01   1.00800           0
      4325 MEMB     32       PC       H1B      hE       0.785340E-01   1.00800           0
      4326 MEMB     32       PC       C32      cA      -0.170824       12.0100           0
      4327 MEMB     32       PC       H2A      hX       0.136415       1.00800           0
      4328 MEMB     32       PC       H2B      hX       0.136415       1.00800           0
      4329 MEMB     32       PC       N31      nA       0.245262       14.0100           0
      4330 MEMB     32       PC       C33      cA      -0.338973       12.0100           0
      4331 MEMB     32       PC       H3A      hX       0.172230       1.00800           0
      4332 MEMB     32       PC       H3B      hX       0.172230       1.00800           0
      4333 MEMB     32       PC       H3C      hX       0.172230       1.00800           0
      4334 MEMB     32       PC       C34      cA      -0.338973       12.0100           0
      4335 MEMB     32       PC       H4A      hX       0.172230       1.00800           0
      4336 MEMB     32       PC       H4B      hX       0.172230       1.00800           0
      4337 MEMB     32       PC       H4C      hX       0.172230       1.00800           0
      4338 MEMB     32       PC       C35      cA      -0.338973       12.0100           0
      4339 MEMB     32       PC       H5A      hX       0.172230       1.00800           0
      4340 MEMB     32       PC       H5B      hX       0.172230       1.00800           0
      4341 MEMB     32       PC       H5C      hX       0.172230       1.00800           0
      4342 MEMB     32       PC       O33      oP      -0.875812       16.0000           0
      4343 MEMB     32       PC       O34      oP      -0.875812       16.0000           0
      4344 MEMB     32       PC       O21      oS      -0.552948       16.0000           0
      4345 MEMB     32       PC       C21      cC       0.897613       12.0100           0
      4346 MEMB     32       PC       O22      oC      -0.673755       16.0000           0
      4347 MEMB     32       OL       C12      cD      -0.143418       12.0100           0
      4348 MEMB     32       OL       H2R      hL       0.428610E-01   1.00800           0
      4349 MEMB     32       OL       H2S      hL       0.428610E-01   1.00800           0
      4350 MEMB     32       OL       C13      cD       0.161900E-02   12.0100           0
      4351 MEMB     32       OL       H3R      hL       0.195290E-01   1.00800           0
      4352 MEMB     32       OL       H3S      hL       0.195290E-01   1.00800           0
      4353 MEMB     32       OL       C14      cD      -0.229600E-01   12.0100           0
      4354 MEMB     32       OL       H4R      hL       0.181340E-01   1.00800           0
      4355 MEMB     32       OL       H4S      hL       0.181340E-01   1.00800           0
      4356 MEMB     32       OL       C15      cD      -0.166920E-01   12.0100           0
      4357 MEMB     32       OL       H5R      hL       0.869000E-02   1.00800           0
      4358 MEMB     32       OL       H5S      hL       0.869000E-02   1.00800           0
      4359 MEMB     32       OL       C16      cD      -0.237890E-01   12.0100           0
      4360 MEMB     32       OL       H6R      hL       0.926600E-02   1.00800           0
      4361 MEMB     32       OL       H6S      hL       0.926600E-02   1.00800           0
      4362 MEMB     32       OL       C17      cD      -0.174950E-01   12.0100           0
      4363 MEMB     32       OL       H7R      hL       0.195980E-01   1.00800           0
      4364 MEMB     32       OL       H7S      hL       0.195980E-01   1.00800           0
      4365 MEMB     32       OL       C18      cD       0.317750E-01   12.0100           0
      4366 MEMB     32       OL       H8R      hL       0.326850E-01   1.00800           0
      4367 MEMB     32       OL       H8S      hL       0.326850E-01   1.00800           0
      4368 MEMB     32       OL       C19      cB      -0.244228       12.0100           0
      4369 MEMB     32       OL       H9R      hB       0.131512       1.00800           0
      4370 MEMB     32       OL       C110     cB      -0.239284       12.0100           0
      4371 MEMB     32       OL       H10R     hB       0.126878       1.00800           0
      4372 MEMB     32       OL       C111     cD       0.290590E-01   12.0100           0
      4373 MEMB     32       OL       H11R     hL       0.335310E-01   1.00800           0
      4374 MEMB     32       OL       H11S     hL       0.335310E-01   1.00800           0
      4375 MEMB     32       OL       C112     cD      -0.263530E-01   12.0100           0
      4376 MEMB     32       OL       H12R     hL       0.197170E-01   1.00800           0
      4377 MEMB     32       OL       H12S     hL       0.197170E-01   1.00800           0
      4378 MEMB     32       OL       C113     cD      -0.182570E-01   12.0100           0
      4379 MEMB     32       OL       H13R     hL       0.138000E-01   1.00800           0
      4380 MEMB     32       OL       H13S     hL       0.138000E-01   1.00800           0
      4381 MEMB     32       OL       C114     cD      -0.248490E-01   12.0100           0
      4382 MEMB     32       OL       H14R     hL       0.857200E-02   1.00800           0
      4383 MEMB     32       OL       H14S     hL       0.857200E-02   1.00800           0
      4384 MEMB     32       OL       C115     cD      -0.232470E-01   12.0100           0
      4385 MEMB     32       OL       H15R     hL       0.104030E-01   1.00800           0
      4386 MEMB     32       OL       H15S     hL       0.104030E-01   1.00800           0
      4387 MEMB     32       OL       C116     cD      -0.124880E-01   12.0100           0
      4388 MEMB     32       OL       H16R     hL       0.136590E-01   1.00800           0
      4389 MEMB     32       OL       H16S     hL       0.136590E-01   1.00800           0
      4390 MEMB     32       OL       C117     cD       0.868400E-02   12.0100           0
      4391 MEMB     32       OL       H17R     hL       0.100260E-01   1.00800           0
      4392 MEMB     32       OL       H17S     hL       0.100260E-01   1.00800           0
      4393 MEMB     32       OL       C118     cD      -0.117290       12.0100           0
      4394 MEMB     32       OL       H18R     hL       0.266270E-01   1.00800           0
      4395 MEMB     32       OL       H18S     hL       0.266270E-01   1.00800           0
      4396 MEMB     32       OL       H18T     hL       0.266270E-01   1.00800           0
      4397 MEMB     33       PA       C116     cD      -0.125447       12.0100           0
      4398 MEMB     33       PA       H16R     hL       0.290470E-01   1.00800           0
      4399 MEMB     33       PA       H16S     hL       0.290470E-01   1.00800           0
      4400 MEMB     33       PA       H16T     hL       0.290470E-01   1.00800           0
      4401 MEMB     33       PA       C115     cD       0.139750E-01   12.0100           0
      4402 MEMB     33       PA       H15R     hL       0.929200E-02   1.00800           0
      4403 MEMB     33       PA       H15S     hL       0.929200E-02   1.00800           0
      4404 MEMB     33       PA       C114     cD      -0.200860E-01   12.0100           0
      4405 MEMB     33       PA       H14R     hL       0.159290E-01   1.00800           0
      4406 MEMB     33       PA       H14S     hL       0.159290E-01   1.00800           0
      4407 MEMB     33       PA       C113     cD      -0.330960E-01   12.0100           0
      4408 MEMB     33       PA       H13R     hL       0.146210E-01   1.00800           0
      4409 MEMB     33       PA       H13S     hL       0.146210E-01   1.00800           0
      4410 MEMB     33       PA       C112     cD      -0.276330E-01   12.0100           0
      4411 MEMB     33       PA       H12R     hL       0.113680E-01   1.00800           0
      4412 MEMB     33       PA       H12S     hL       0.113680E-01   1.00800           0
      4413 MEMB     33       PA       C111     cD      -0.252060E-01   12.0100           0
      4414 MEMB     33       PA       H11R     hL       0.143340E-01   1.00800           0
      4415 MEMB     33       PA       H11S     hL       0.143340E-01   1.00800           0
      4416 MEMB     33       PA       C110     cD      -0.288310E-01   12.0100           0
      4417 MEMB     33       PA       H10R     hL       0.146910E-01   1.00800           0
      4418 MEMB     33       PA       H10S     hL       0.146910E-01   1.00800           0
      4419 MEMB     33       PA       C19      cD      -0.304720E-01   12.0100           0
      4420 MEMB     33       PA       H9R      hL       0.138970E-01   1.00800           0
      4421 MEMB     33       PA       H9S      hL       0.138970E-01   1.00800           0
      4422 MEMB     33       PA       C18      cD      -0.157930E-01   12.0100           0
      4423 MEMB     33       PA       H8R      hL       0.906700E-02   1.00800           0
      4424 MEMB     33       PA       H8S      hL       0.906700E-02   1.00800           0
      4425 MEMB     33       PA       C17      cD      -0.196300E-01   12.0100           0
      4426 MEMB     33       PA       H7R      hL       0.110410E-01   1.00800           0
      4427 MEMB     33       PA       H7S      hL       0.110410E-01   1.00800           0
      4428 MEMB     33       PA       C16      cD      -0.244270E-01   12.0100           0
      4429 MEMB     33       PA       H6R      hL       0.133340E-01   1.00800           0
      4430 MEMB     33       PA       H6S      hL       0.133340E-01   1.00800           0
      4431 MEMB     33       PA       C15      cD      -0.293870E-01   12.0100           0
      4432 MEMB     33       PA       H5R      hL       0.167630E-01   1.00800           0
      4433 MEMB     33       PA       H5S      hL       0.167630E-01   1.00800           0
      4434 MEMB     33       PA       C14      cD      -0.300990E-01   12.0100           0
      4435 MEMB     33       PA       H4R      hL       0.208770E-01   1.00800           0
      4436 MEMB     33       PA       H4S      hL       0.208770E-01   1.00800           0
      4437 MEMB     33       PA       C13      cD      -0.488200E-02   12.0100           0
      4438 MEMB     33       PA       H3R      hL       0.190070E-01   1.00800           0
      4439 MEMB     33       PA       H3S      hL       0.190070E-01   1.00800           0
      4440 MEMB     33       PA       C12      cD      -0.149259       12.0100           0
      4441 MEMB     33       PA       H2R      hL       0.473450E-01   1.00800           0
      4442 MEMB     33       PA       H2S      hL       0.473450E-01   1.00800           0
      4443 MEMB     33       PC       C11      cC       0.910403       12.0100           0
      4444 MEMB     33       PC       O12      oC      -0.671566       16.0000           0
      4445 MEMB     33       PC       O11      oS      -0.575489       16.0000           0
      4446 MEMB     33       PC       C1       cA       0.196939       12.0100           0
      4447 MEMB     33       PC       HR       hE       0.704690E-01   1.00800           0
      4448 MEMB     33       PC       HS       hE       0.704690E-01   1.00800           0
      4449 MEMB     33       PC       C2       cA       0.281242       12.0100           0
      4450 MEMB     33       PC       HX       hE       0.632530E-01   1.00800           0
      4451 MEMB     33       PC       C3       cA       0.174590E-01   12.0100           0
      4452 MEMB     33       PC       HA       hE       0.955910E-01   1.00800           0
      4453 MEMB     33       PC       HB       hE       0.955910E-01   1.00800           0
      4454 MEMB     33       PC       O31      oT      -0.509480       16.0000           0
      4455 MEMB     33       PC       P31      pA       1.339721       30.9700           0
      4456 MEMB     33       PC       O32      oT      -0.508176       16.0000           0
      4457 MEMB     33       PC       C31      cA       0.166801       12.0100           0
      4458 MEMB     33       PC       H1A      hE       0.785340E-01   1.00800           0
      4459 MEMB     33       PC       H1B      hE       0.785340E-01   1.00800           0
      4460 MEMB     33       PC       C32      cA      -0.170824       12.0100           0
      4461 MEMB     33       PC       H2A      hX       0.136415       1.00800           0
      4462 MEMB     33       PC       H2B      hX       0.136415       1.00800           0
      4463 MEMB     33       PC       N31      nA       0.245262       14.0100           0
      4464 MEMB     33       PC       C33      cA      -0.338973       12.0100           0
      4465 MEMB     33       PC       H3A      hX       0.172230       1.00800           0
      4466 MEMB     33       PC       H3B      hX       0.172230       1.00800           0
      4467 MEMB     33       PC       H3C      hX       0.172230       1.00800           0
      4468 MEMB     33       PC       C34      cA      -0.338973       12.0100           0
      4469 MEMB     33       PC       H4A      hX       0.172230       1.00800           0
      4470 MEMB     33       PC       H4B      hX       0.172230       1.00800           0
      4471 MEMB     33       PC       H4C      hX       0.172230       1.00800           0
      4472 MEMB     33       PC       C35      cA      -0.338973       12.0100           0
      4473 MEMB     33       PC       H5A      hX       0.172230       1.00800           0
      4474 MEMB     33       PC       H5B      hX       0.172230       1.00800           0
      4475 MEMB     33       PC       H5C      hX       0.172230       1.00800           0
      4476 MEMB     33       PC       O33      oP      -0.875812       16.0000           0
      4477 MEMB     33       PC       O34      oP      -0.875812       16.0000           0
      4478 MEMB     33       PC       O21      oS      -0.552948       16.0000           0
      4479 MEMB     33       PC       C21      cC       0.897613       12.0100           0
      4480 MEMB     33       PC       O22      oC      -0.673755       16.0000           0
      4481 MEMB     33       OL       C12      cD      -0.143418       12.0100           0
      4482 MEMB     33       OL       H2R      hL       0.428610E-01   1.00800           0
      4483 MEMB     33       OL       H2S      hL       0.428610E-01   1.00800           0
      4484 MEMB     33       OL       C13      cD       0.161900E-02   12.0100           0
      4485 MEMB     33       OL       H3R      hL       0.195290E-01   1.00800           0
      4486 MEMB     33       OL       H3S      hL       0.195290E-01   1.00800           0
      4487 MEMB     33       OL       C14      cD      -0.229600E-01   12.0100           0
      4488 MEMB     33       OL       H4R      hL       0.181340E-01   1.00800           0
      4489 MEMB     33       OL       H4S      hL       0.181340E-01   1.00800           0
      4490 MEMB     33       OL       C15      cD      -0.166920E-01   12.0100           0
      4491 MEMB     33       OL       H5R      hL       0.869000E-02   1.00800           0
      4492 MEMB     33       OL       H5S      hL       0.869000E-02   1.00800           0
      4493 MEMB     33       OL       C16      cD      -0.237890E-01   12.0100           0
      4494 MEMB     33       OL       H6R      hL       0.926600E-02   1.00800           0
      4495 MEMB     33       OL       H6S      hL       0.926600E-02   1.00800           0
      4496 MEMB     33       OL       C17      cD      -0.174950E-01   12.0100           0
      4497 MEMB     33       OL       H7R      hL       0.195980E-01   1.00800           0
      4498 MEMB     33       OL       H7S      hL       0.195980E-01   1.00800           0
      4499 MEMB     33       OL       C18      cD       0.317750E-01   12.0100           0
      4500 MEMB     33       OL       H8R      hL       0.326850E-01   1.00800           0
      4501 MEMB     33       OL       H8S      hL       0.326850E-01   1.00800           0
      4502 MEMB     33       OL       C19      cB      -0.244228       12.0100           0
      4503 MEMB     33       OL       H9R      hB       0.131512       1.00800           0
      4504 MEMB     33       OL       C110     cB      -0.239284       12.0100           0
      4505 MEMB     33       OL       H10R     hB       0.126878       1.00800           0
      4506 MEMB     33       OL       C111     cD       0.290590E-01   12.0100           0
      4507 MEMB     33       OL       H11R     hL       0.335310E-01   1.00800           0
      4508 MEMB     33       OL       H11S     hL       0.335310E-01   1.00800           0
      4509 MEMB     33       OL       C112     cD      -0.263530E-01   12.0100           0
      4510 MEMB     33       OL       H12R     hL       0.197170E-01   1.00800           0
      4511 MEMB     33       OL       H12S     hL       0.197170E-01   1.00800           0
      4512 MEMB     33       OL       C113     cD      -0.182570E-01   12.0100           0
      4513 MEMB     33       OL       H13R     hL       0.138000E-01   1.00800           0
      4514 MEMB     33       OL       H13S     hL       0.138000E-01   1.00800           0
      4515 MEMB     33       OL       C114     cD      -0.248490E-01   12.0100           0
      4516 MEMB     33       OL       H14R     hL       0.857200E-02   1.00800           0
      4517 MEMB     33       OL       H14S     hL       0.857200E-02   1.00800           0
      4518 MEMB     33       OL       C115     cD      -0.232470E-01   12.0100           0
      4519 MEMB     33       OL       H15R     hL       0.104030E-01   1.00800           0
      4520 MEMB     33       OL       H15S     hL       0.104030E-01   1.00800           0
      4521 MEMB     33       OL       C116     cD      -0.124880E-01   12.0100           0
      4522 MEMB     33       OL       H16R     hL       0.136590E-01   1.00800           0
      4523 MEMB     33       OL       H16S     hL       0.136590E-01   1.00800           0
      4524 MEMB     33       OL       C117     cD       0.868400E-02   12.0100           0
      4525 MEMB     33       OL       H17R     hL       0.100260E-01   1.00800           0
      4526 MEMB     33       OL       H17S     hL       0.100260E-01   1.00800           0
      4527 MEMB     33       OL       C118     cD      -0.117290       12.0100           0
      4528 MEMB     33       OL       H18R     hL       0.266270E-01   1.00800           0
      4529 MEMB     33       OL       H18S     hL       0.266270E-01   1.00800           0
      4530 MEMB     33       OL       H18T     hL       0.266270E-01   1.00800           0
      4531 MEMB     34       PA       C116     cD      -0.125447       12.0100           0
      4532 MEMB     34       PA       H16R     hL       0.290470E-01   1.00800           0
      4533 MEMB     34       PA       H16S     hL       0.290470E-01   1.00800           0
      4534 MEMB     34       PA       H16T     hL       0.290470E-01   1.00800           0
      4535 MEMB     34       PA       C115     cD       0.139750E-01   12.0100           0
      4536 MEMB     34       PA       H15R     hL       0.929200E-02   1.00800           0
      4537 MEMB     34       PA       H15S     hL       0.929200E-02   1.00800           0
      4538 MEMB     34       PA       C114     cD      -0.200860E-01   12.0100           0
      4539 MEMB     34       PA       H14R     hL       0.159290E-01   1.00800           0
      4540 MEMB     34       PA       H14S     hL       0.159290E-01   1.00800           0
      4541 MEMB     34       PA       C113     cD      -0.330960E-01   12.0100           0
      4542 MEMB     34       PA       H13R     hL       0.146210E-01   1.00800           0
      4543 MEMB     34       PA       H13S     hL       0.146210E-01   1.00800           0
      4544 MEMB     34       PA       C112     cD      -0.276330E-01   12.0100           0
      4545 MEMB     34       PA       H12R     hL       0.113680E-01   1.00800           0
      4546 MEMB     34       PA       H12S     hL       0.113680E-01   1.00800           0
      4547 MEMB     34       PA       C111     cD      -0.252060E-01   12.0100           0
      4548 MEMB     34       PA       H11R     hL       0.143340E-01   1.00800           0
      4549 MEMB     34       PA       H11S     hL       0.143340E-01   1.00800           0
      4550 MEMB     34       PA       C110     cD      -0.288310E-01   12.0100           0
      4551 MEMB     34       PA       H10R     hL       0.146910E-01   1.00800           0
      4552 MEMB     34       PA       H10S     hL       0.146910E-01   1.00800           0
      4553 MEMB     34       PA       C19      cD      -0.304720E-01   12.0100           0
      4554 MEMB     34       PA       H9R      hL       0.138970E-01   1.00800           0
      4555 MEMB     34       PA       H9S      hL       0.138970E-01   1.00800           0
      4556 MEMB     34       PA       C18      cD      -0.157930E-01   12.0100           0
      4557 MEMB     34       PA       H8R      hL       0.906700E-02   1.00800           0
      4558 MEMB     34       PA       H8S      hL       0.906700E-02   1.00800           0
      4559 MEMB     34       PA       C17      cD      -0.196300E-01   12.0100           0
      4560 MEMB     34       PA       H7R      hL       0.110410E-01   1.00800           0
      4561 MEMB     34       PA       H7S      hL       0.110410E-01   1.00800           0
      4562 MEMB     34       PA       C16      cD      -0.244270E-01   12.0100           0
      4563 MEMB     34       PA       H6R      hL       0.133340E-01   1.00800           0
      4564 MEMB     34       PA       H6S      hL       0.133340E-01   1.00800           0
      4565 MEMB     34       PA       C15      cD      -0.293870E-01   12.0100           0
      4566 MEMB     34       PA       H5R      hL       0.167630E-01   1.00800           0
      4567 MEMB     34       PA       H5S      hL       0.167630E-01   1.00800           0
      4568 MEMB     34       PA       C14      cD      -0.300990E-01   12.0100           0
      4569 MEMB     34       PA       H4R      hL       0.208770E-01   1.00800           0
      4570 MEMB     34       PA       H4S      hL       0.208770E-01   1.00800           0
      4571 MEMB     34       PA       C13      cD      -0.488200E-02   12.0100           0
      4572 MEMB     34       PA       H3R      hL       0.190070E-01   1.00800           0
      4573 MEMB     34       PA       H3S      hL       0.190070E-01   1.00800           0
      4574 MEMB     34       PA       C12      cD      -0.149259       12.0100           0
      4575 MEMB     34       PA       H2R      hL       0.473450E-01   1.00800           0
      4576 MEMB     34       PA       H2S      hL       0.473450E-01   1.00800           0
      4577 MEMB     34       PC       C11      cC       0.910403       12.0100           0
      4578 MEMB     34       PC       O12      oC      -0.671566       16.0000           0
      4579 MEMB     34       PC       O11      oS      -0.575489       16.0000           0
      4580 MEMB     34       PC       C1       cA       0.196939       12.0100           0
      4581 MEMB     34       PC       HR       hE       0.704690E-01   1.00800           0
      4582 MEMB     34       PC       HS       hE       0.704690E-01   1.00800           0
      4583 MEMB     34       PC       C2       cA       0.281242       12.0100           0
      4584 MEMB     34       PC       HX       hE       0.632530E-01   1.00800           0
      4585 MEMB     34       PC       C3       cA       0.174590E-01   12.0100           0
      4586 MEMB     34       PC       HA       hE       0.955910E-01   1.00800           0
      4587 MEMB     34       PC       HB       hE       0.955910E-01   1.00800           0
      4588 MEMB     34       PC       O31      oT      -0.509480       16.0000           0
      4589 MEMB     34       PC       P31      pA       1.339721       30.9700           0
      4590 MEMB     34       PC       O32      oT      -0.508176       16.0000           0
      4591 MEMB     34       PC       C31      cA       0.166801       12.0100           0
      4592 MEMB     34       PC       H1A      hE       0.785340E-01   1.00800           0
      4593 MEMB     34       PC       H1B      hE       0.785340E-01   1.00800           0
      4594 MEMB     34       PC       C32      cA      -0.170824       12.0100           0
      4595 MEMB     34       PC       H2A      hX       0.136415       1.00800           0
      4596 MEMB     34       PC       H2B      hX       0.136415       1.00800           0
      4597 MEMB     34       PC       N31      nA       0.245262       14.0100           0
      4598 MEMB     34       PC       C33      cA      -0.338973       12.0100           0
      4599 MEMB     34       PC       H3A      hX       0.172230       1.00800           0
      4600 MEMB     34       PC       H3B      hX       0.172230       1.00800           0
      4601 MEMB     34       PC       H3C      hX       0.172230       1.00800           0
      4602 MEMB     34       PC       C34      cA      -0.338973       12.0100           0
      4603 MEMB     34       PC       H4A      hX       0.172230       1.00800           0
      4604 MEMB     34       PC       H4B      hX       0.172230       1.00800           0
      4605 MEMB     34       PC       H4C      hX       0.172230       1.00800           0
      4606 MEMB     34       PC       C35      cA      -0.338973       12.0100           0
      4607 MEMB     34       PC       H5A      hX       0.172230       1.00800           0
      4608 MEMB     34       PC       H5B      hX       0.172230       1.00800           0
      4609 MEMB     34       PC       H5C      hX       0.172230       1.00800           0
      4610 MEMB     34       PC       O33      oP      -0.875812       16.0000           0
      4611 MEMB     34       PC       O34      oP      -0.875812       16.0000           0
      4612 MEMB     34       PC       O21      oS      -0.552948       16.0000           0
      4613 MEMB     34       PC       C21      cC       0.897613       12.0100           0
      4614 MEMB     34       PC       O22      oC      -0.673755       16.0000           0
      4615 MEMB     34       OL       C12      cD      -0.143418       12.0100           0
      4616 MEMB     34       OL       H2R      hL       0.428610E-01   1.00800           0
      4617 MEMB     34       OL       H2S      hL       0.428610E-01   1.00800           0
      4618 MEMB     34       OL       C13      cD       0.161900E-02   12.0100           0
      4619 MEMB     34       OL       H3R      hL       0.195290E-01   1.00800           0
      4620 MEMB     34       OL       H3S      hL       0.195290E-01   1.00800           0
      4621 MEMB     34       OL       C14      cD      -0.229600E-01   12.0100           0
      4622 MEMB     34       OL       H4R      hL       0.181340E-01   1.00800           0
      4623 MEMB     34       OL       H4S      hL       0.181340E-01   1.00800           0
      4624 MEMB     34       OL       C15      cD      -0.166920E-01   12.0100           0
      4625 MEMB     34       OL       H5R      hL       0.869000E-02   1.00800           0
      4626 MEMB     34       OL       H5S      hL       0.869000E-02   1.00800           0
      4627 MEMB     34       OL       C16      cD      -0.237890E-01   12.0100           0
      4628 MEMB     34       OL       H6R      hL       0.926600E-02   1.00800           0
      4629 MEMB     34       OL       H6S      hL       0.926600E-02   1.00800           0
      4630 MEMB     34       OL       C17      cD      -0.174950E-01   12.0100           0
      4631 MEMB     34       OL       H7R      hL       0.195980E-01   1.00800           0
      4632 MEMB     34       OL       H7S      hL       0.195980E-01   1.00800           0
      4633 MEMB     34       OL       C18      cD       0.317750E-01   12.0100           0
      4634 MEMB     34       OL       H8R      hL       0.326850E-01   1.00800           0
      4635 MEMB     34       OL       H8S      hL       0.326850E-01   1.00800           0
      4636 MEMB     34       OL       C19      cB      -0.244228       12.0100           0
      4637 MEMB     34       OL       H9R      hB       0.131512       1.00800           0
      4638 MEMB     34       OL       C110     cB      -0.239284       12.0100           0
      4639 MEMB     34       OL       H10R     hB       0.126878       1.00800           0
      4640 MEMB     34       OL       C111     cD       0.290590E-01   12.0100           0
      4641 MEMB     34       OL       H11R     hL       0.335310E-01   1.00800           0
      4642 MEMB     34       OL       H11S     hL       0.335310E-01   1.00800           0
      4643 MEMB     34       OL       C112     cD      -0.263530E-01   12.0100           0
      4644 MEMB     34       OL       H12R     hL       0.197170E-01   1.00800           0
      4645 MEMB     34       OL       H12S     hL       0.197170E-01   1.00800           0
      4646 MEMB     34       OL       C113     cD      -0.182570E-01   12.0100           0
      4647 MEMB     34       OL       H13R     hL       0.138000E-01   1.00800           0
      4648 MEMB     34       OL       H13S     hL       0.138000E-01   1.00800           0
      4649 MEMB     34       OL       C114     cD      -0.248490E-01   12.0100           0
      4650 MEMB     34       OL       H14R     hL       0.857200E-02   1.00800           0
      4651 MEMB     34       OL       H14S     hL       0.857200E-02   1.00800           0
      4652 MEMB     34       OL       C115     cD      -0.232470E-01   12.0100           0
      4653 MEMB     34       OL       H15R     hL       0.104030E-01   1.00800           0
      4654 MEMB     34       OL       H15S     hL       0.104030E-01   1.00800           0
      4655 MEMB     34       OL       C116     cD      -0.124880E-01   12.0100           0
      4656 MEMB     34       OL       H16R     hL       0.136590E-01   1.00800           0
      4657 MEMB     34       OL       H16S     hL       0.136590E-01   1.00800           0
      4658 MEMB     34       OL       C117     cD       0.868400E-02   12.0100           0
      4659 MEMB     34       OL       H17R     hL       0.100260E-01   1.00800           0
      4660 MEMB     34       OL       H17S     hL       0.100260E-01   1.00800           0
      4661 MEMB     34       OL       C118     cD      -0.117290       12.0100           0
      4662 MEMB     34       OL       H18R     hL       0.266270E-01   1.00800           0
      4663 MEMB     34       OL       H18S     hL       0.266270E-01   1.00800           0
      4664 MEMB     34       OL       H18T     hL       0.266270E-01   1.00800           0
      4665 MEMB     35       PA       C116     cD      -0.125447       12.0100           0
      4666 MEMB     35       PA       H16R     hL       0.290470E-01   1.00800           0
      4667 MEMB     35       PA       H16S     hL       0.290470E-01   1.00800           0
      4668 MEMB     35       PA       H16T     hL       0.290470E-01   1.00800           0
      4669 MEMB     35       PA       C115     cD       0.139750E-01   12.0100           0
      4670 MEMB     35       PA       H15R     hL       0.929200E-02   1.00800           0
      4671 MEMB     35       PA       H15S     hL       0.929200E-02   1.00800           0
      4672 MEMB     35       PA       C114     cD      -0.200860E-01   12.0100           0
      4673 MEMB     35       PA       H14R     hL       0.159290E-01   1.00800           0
      4674 MEMB     35       PA       H14S     hL       0.159290E-01   1.00800           0
      4675 MEMB     35       PA       C113     cD      -0.330960E-01   12.0100           0
      4676 MEMB     35       PA       H13R     hL       0.146210E-01   1.00800           0
      4677 MEMB     35       PA       H13S     hL       0.146210E-01   1.00800           0
      4678 MEMB     35       PA       C112     cD      -0.276330E-01   12.0100           0
      4679 MEMB     35       PA       H12R     hL       0.113680E-01   1.00800           0
      4680 MEMB     35       PA       H12S     hL       0.113680E-01   1.00800           0
      4681 MEMB     35       PA       C111     cD      -0.252060E-01   12.0100           0
      4682 MEMB     35       PA       H11R     hL       0.143340E-01   1.00800           0
      4683 MEMB     35       PA       H11S     hL       0.143340E-01   1.00800           0
      4684 MEMB     35       PA       C110     cD      -0.288310E-01   12.0100           0
      4685 MEMB     35       PA       H10R     hL       0.146910E-01   1.00800           0
      4686 MEMB     35       PA       H10S     hL       0.146910E-01   1.00800           0
      4687 MEMB     35       PA       C19      cD      -0.304720E-01   12.0100           0
      4688 MEMB     35       PA       H9R      hL       0.138970E-01   1.00800           0
      4689 MEMB     35       PA       H9S      hL       0.138970E-01   1.00800           0
      4690 MEMB     35       PA       C18      cD      -0.157930E-01   12.0100           0
      4691 MEMB     35       PA       H8R      hL       0.906700E-02   1.00800           0
      4692 MEMB     35       PA       H8S      hL       0.906700E-02   1.00800           0
      4693 MEMB     35       PA       C17      cD      -0.196300E-01   12.0100           0
      4694 MEMB     35       PA       H7R      hL       0.110410E-01   1.00800           0
      4695 MEMB     35       PA       H7S      hL       0.110410E-01   1.00800           0
      4696 MEMB     35       PA       C16      cD      -0.244270E-01   12.0100           0
      4697 MEMB     35       PA       H6R      hL       0.133340E-01   1.00800           0
      4698 MEMB     35       PA       H6S      hL       0.133340E-01   1.00800           0
      4699 MEMB     35       PA       C15      cD      -0.293870E-01   12.0100           0
      4700 MEMB     35       PA       H5R      hL       0.167630E-01   1.00800           0
      4701 MEMB     35       PA       H5S      hL       0.167630E-01   1.00800           0
      4702 MEMB     35       PA       C14      cD      -0.300990E-01   12.0100           0
      4703 MEMB     35       PA       H4R      hL       0.208770E-01   1.00800           0
      4704 MEMB     35       PA       H4S      hL       0.208770E-01   1.00800           0
      4705 MEMB     35       PA       C13      cD      -0.488200E-02   12.0100           0
      4706 MEMB     35       PA       H3R      hL       0.190070E-01   1.00800           0
      4707 MEMB     35       PA       H3S      hL       0.190070E-01   1.00800           0
      4708 MEMB     35       PA       C12      cD      -0.149259       12.0100           0
      4709 MEMB     35       PA       H2R      hL       0.473450E-01   1.00800           0
      4710 MEMB     35       PA       H2S      hL       0.473450E-01   1.00800           0
      4711 MEMB     35       PC       C11      cC       0.910403       12.0100           0
      4712 MEMB     35       PC       O12      oC      -0.671566       16.0000           0
      4713 MEMB     35       PC       O11      oS      -0.575489       16.0000           0
      4714 MEMB     35       PC       C1       cA       0.196939       12.0100           0
      4715 MEMB     35       PC       HR       hE       0.704690E-01   1.00800           0
      4716 MEMB     35       PC       HS       hE       0.704690E-01   1.00800           0
      4717 MEMB     35       PC       C2       cA       0.281242       12.0100           0
      4718 MEMB     35       PC       HX       hE       0.632530E-01   1.00800           0
      4719 MEMB     35       PC       C3       cA       0.174590E-01   12.0100           0
      4720 MEMB     35       PC       HA       hE       0.955910E-01   1.00800           0
      4721 MEMB     35       PC       HB       hE       0.955910E-01   1.00800           0
      4722 MEMB     35       PC       O31      oT      -0.509480       16.0000           0
      4723 MEMB     35       PC       P31      pA       1.339721       30.9700           0
      4724 MEMB     35       PC       O32      oT      -0.508176       16.0000           0
      4725 MEMB     35       PC       C31      cA       0.166801       12.0100           0
      4726 MEMB     35       PC       H1A      hE       0.785340E-01   1.00800           0
      4727 MEMB     35       PC       H1B      hE       0.785340E-01   1.00800           0
      4728 MEMB     35       PC       C32      cA      -0.170824       12.0100           0
      4729 MEMB     35       PC       H2A      hX       0.136415       1.00800           0
      4730 MEMB     35       PC       H2B      hX       0.136415       1.00800           0
      4731 MEMB     35       PC       N31      nA       0.245262       14.0100           0
      4732 MEMB     35       PC       C33      cA      -0.338973       12.0100           0
      4733 MEMB     35       PC       H3A      hX       0.172230       1.00800           0
      4734 MEMB     35       PC       H3B      hX       0.172230       1.00800           0
      4735 MEMB     35       PC       H3C      hX       0.172230       1.00800           0
      4736 MEMB     35       PC       C34      cA      -0.338973       12.0100           0
      4737 MEMB     35       PC       H4A      hX       0.172230       1.00800           0
      4738 MEMB     35       PC       H4B      hX       0.172230       1.00800           0
      4739 MEMB     35       PC       H4C      hX       0.172230       1.00800           0
      4740 MEMB     35       PC       C35      cA      -0.338973       12.0100           0
      4741 MEMB     35       PC       H5A      hX       0.172230       1.00800           0
      4742 MEMB     35       PC       H5B      hX       0.172230       1.00800           0
      4743 MEMB     35       PC       H5C      hX       0.172230       1.00800           0
      4744 MEMB     35       PC       O33      oP      -0.875812       16.0000           0
      4745 MEMB     35       PC       O34      oP      -0.875812       16.0000           0
      4746 MEMB     35       PC       O21      oS      -0.552948       16.0000           0
      4747 MEMB     35       PC       C21      cC       0.897613       12.0100           0
      4748 MEMB     35       PC       O22      oC      -0.673755       16.0000           0
      4749 MEMB     35       OL       C12      cD      -0.143418       12.0100           0
      4750 MEMB     35       OL       H2R      hL       0.428610E-01   1.00800           0
      4751 MEMB     35       OL       H2S      hL       0.428610E-01   1.00800           0
      4752 MEMB     35       OL       C13      cD       0.161900E-02   12.0100           0
      4753 MEMB     35       OL       H3R      hL       0.195290E-01   1.00800           0
      4754 MEMB     35       OL       H3S      hL       0.195290E-01   1.00800           0
      4755 MEMB     35       OL       C14      cD      -0.229600E-01   12.0100           0
      4756 MEMB     35       OL       H4R      hL       0.181340E-01   1.00800           0
      4757 MEMB     35       OL       H4S      hL       0.181340E-01   1.00800           0
      4758 MEMB     35       OL       C15      cD      -0.166920E-01   12.0100           0
      4759 MEMB     35       OL       H5R      hL       0.869000E-02   1.00800           0
      4760 MEMB     35       OL       H5S      hL       0.869000E-02   1.00800           0
      4761 MEMB     35       OL       C16      cD      -0.237890E-01   12.0100           0
      4762 MEMB     35       OL       H6R      hL       0.926600E-02   1.00800           0
      4763 MEMB     35       OL       H6S      hL       0.926600E-02   1.00800           0
      4764 MEMB     35       OL       C17      cD      -0.174950E-01   12.0100           0
      4765 MEMB     35       OL       H7R      hL       0.195980E-01   1.00800           0
      4766 MEMB     35       OL       H7S      hL       0.195980E-01   1.00800           0
      4767 MEMB     35       OL       C18      cD       0.317750E-01   12.0100           0
      4768 MEMB     35       OL       H8R      hL       0.326850E-01   1.00800           0
      4769 MEMB     35       OL       H8S      hL       0.326850E-01   1.00800           0
      4770 MEMB     35       OL       C19      cB      -0.244228       12.0100           0
      4771 MEMB     35       OL       H9R      hB       0.131512       1.00800           0
      4772 MEMB     35       OL       C110     cB      -0.239284       12.0100           0
      4773 MEMB     35       OL       H10R     hB       0.126878       1.00800           0
      4774 MEMB     35       OL       C111     cD       0.290590E-01   12.0100           0
      4775 MEMB     35       OL       H11R     hL       0.335310E-01   1.00800           0
      4776 MEMB     35       OL       H11S     hL       0.335310E-01   1.00800           0
      4777 MEMB     35       OL       C112     cD      -0.263530E-01   12.0100           0
      4778 MEMB     35       OL       H12R     hL       0.197170E-01   1.00800           0
      4779 MEMB     35       OL       H12S     hL       0.197170E-01   1.00800           0
      4780 MEMB     35       OL       C113     cD      -0.182570E-01   12.0100           0
      4781 MEMB     35       OL       H13R     hL       0.138000E-01   1.00800           0
      4782 MEMB     35       OL       H13S     hL       0.138000E-01   1.00800           0
      4783 MEMB     35       OL       C114     cD      -0.248490E-01   12.0100           0
      4784 MEMB     35       OL       H14R     hL       0.857200E-02   1.00800           0
      4785 MEMB     35       OL       H14S     hL       0.857200E-02   1.00800           0
      4786 MEMB     35       OL       C115     cD      -0.232470E-01   12.0100           0
      4787 MEMB     35       OL       H15R     hL       0.104030E-01   1.00800           0
      4788 MEMB     35       OL       H15S     hL       0.104030E-01   1.00800           0
      4789 MEMB     35       OL       C116     cD      -0.124880E-01   12.0100           0
      4790 MEMB     35       OL       H16R     hL       0.136590E-01   1.00800           0
      4791 MEMB     35       OL       H16S     hL       0.136590E-01   1.00800           0
      4792 MEMB     35       OL       C117     cD       0.868400E-02   12.0100           0
      4793 MEMB     35       OL       H17R     hL       0.100260E-01   1.00800           0
      4794 MEMB     35       OL       H17S     hL       0.100260E-01   1.00800           0
      4795 MEMB     35       OL       C118     cD      -0.117290       12.0100           0
      4796 MEMB     35       OL       H18R     hL       0.266270E-01   1.00800           0
      4797 MEMB     35       OL       H18S     hL       0.266270E-01   1.00800           0
      4798 MEMB     35       OL       H18T     hL       0.266270E-01   1.00800           0
      4799 MEMB     36       PA       C116     cD      -0.125447       12.0100           0
      4800 MEMB     36       PA       H16R     hL       0.290470E-01   1.00800           0
      4801 MEMB     36       PA       H16S     hL       0.290470E-01   1.00800           0
      4802 MEMB     36       PA       H16T     hL       0.290470E-01   1.00800           0
      4803 MEMB     36       PA       C115     cD       0.139750E-01   12.0100           0
      4804 MEMB     36       PA       H15R     hL       0.929200E-02   1.00800           0
      4805 MEMB     36       PA       H15S     hL       0.929200E-02   1.00800           0
      4806 MEMB     36       PA       C114     cD      -0.200860E-01   12.0100           0
      4807 MEMB     36       PA       H14R     hL       0.159290E-01   1.00800           0
      4808 MEMB     36       PA       H14S     hL       0.159290E-01   1.00800           0
      4809 MEMB     36       PA       C113     cD      -0.330960E-01   12.0100           0
      4810 MEMB     36       PA       H13R     hL       0.146210E-01   1.00800           0
      4811 MEMB     36       PA       H13S     hL       0.146210E-01   1.00800           0
      4812 MEMB     36       PA       C112     cD      -0.276330E-01   12.0100           0
      4813 MEMB     36       PA       H12R     hL       0.113680E-01   1.00800           0
      4814 MEMB     36       PA       H12S     hL       0.113680E-01   1.00800           0
      4815 MEMB     36       PA       C111     cD      -0.252060E-01   12.0100           0
      4816 MEMB     36       PA       H11R     hL       0.143340E-01   1.00800           0
      4817 MEMB     36       PA       H11S     hL       0.143340E-01   1.00800           0
      4818 MEMB     36       PA       C110     cD      -0.288310E-01   12.0100           0
      4819 MEMB     36       PA       H10R     hL       0.146910E-01   1.00800           0
      4820 MEMB     36       PA       H10S     hL       0.146910E-01   1.00800           0
      4821 MEMB     36       PA       C19      cD      -0.304720E-01   12.0100           0
      4822 MEMB     36       PA       H9R      hL       0.138970E-01   1.00800           0
      4823 MEMB     36       PA       H9S      hL       0.138970E-01   1.00800           0
      4824 MEMB     36       PA       C18      cD      -0.157930E-01   12.0100           0
      4825 MEMB     36       PA       H8R      hL       0.906700E-02   1.00800           0
      4826 MEMB     36       PA       H8S      hL       0.906700E-02   1.00800           0
      4827 MEMB     36       PA       C17      cD      -0.196300E-01   12.0100           0
      4828 MEMB     36       PA       H7R      hL       0.110410E-01   1.00800           0
      4829 MEMB     36       PA       H7S      hL       0.110410E-01   1.00800           0
      4830 MEMB     36       PA       C16      cD      -0.244270E-01   12.0100           0
      4831 MEMB     36       PA       H6R      hL       0.133340E-01   1.00800           0
      4832 MEMB     36       PA       H6S      hL       0.133340E-01   1.00800           0
      4833 MEMB     36       PA       C15      cD      -0.293870E-01   12.0100           0
      4834 MEMB     36       PA       H5R      hL       0.167630E-01   1.00800           0
      4835 MEMB     36       PA       H5S      hL       0.167630E-01   1.00800           0
      4836 MEMB     36       PA       C14      cD      -0.300990E-01   12.0100           0
      4837 MEMB     36       PA       H4R      hL       0.208770E-01   1.00800           0
      4838 MEMB     36       PA       H4S      hL       0.208770E-01   1.00800           0
      4839 MEMB     36       PA       C13      cD      -0.488200E-02   12.0100           0
      4840 MEMB     36       PA       H3R      hL       0.190070E-01   1.00800           0
      4841 MEMB     36       PA       H3S      hL       0.190070E-01   1.00800           0
      4842 MEMB     36       PA       C12      cD      -0.149259       12.0100           0
      4843 MEMB     36       PA       H2R      hL       0.473450E-01   1.00800           0
      4844 MEMB     36       PA       H2S      hL       0.473450E-01   1.00800           0
      4845 MEMB     36       PC       C11      cC       0.910403       12.0100           0
      4846 MEMB     36       PC       O12      oC      -0.671566       16.0000           0
      4847 MEMB     36       PC       O11      oS      -0.575489       16.0000           0
      4848 MEMB     36       PC       C1       cA       0.196939       12.0100           0
      4849 MEMB     36       PC       HR       hE       0.704690E-01   1.00800           0
      4850 MEMB     36       PC       HS       hE       0.704690E-01   1.00800           0
      4851 MEMB     36       PC       C2       cA       0.281242       12.0100           0
      4852 MEMB     36       PC       HX       hE       0.632530E-01   1.00800           0
      4853 MEMB     36       PC       C3       cA       0.174590E-01   12.0100           0
      4854 MEMB     36       PC       HA       hE       0.955910E-01   1.00800           0
      4855 MEMB     36       PC       HB       hE       0.955910E-01   1.00800           0
      4856 MEMB     36       PC       O31      oT      -0.509480       16.0000           0
      4857 MEMB     36       PC       P31      pA       1.339721       30.9700           0
      4858 MEMB     36       PC       O32      oT      -0.508176       16.0000           0
      4859 MEMB     36       PC       C31      cA       0.166801       12.0100           0
      4860 MEMB     36       PC       H1A      hE       0.785340E-01   1.00800           0
      4861 MEMB     36       PC       H1B      hE       0.785340E-01   1.00800           0
      4862 MEMB     36       PC       C32      cA      -0.170824       12.0100           0
      4863 MEMB     36       PC       H2A      hX       0.136415       1.00800           0
      4864 MEMB     36       PC       H2B      hX       0.136415       1.00800           0
      4865 MEMB     36       PC       N31      nA       0.245262       14.0100           0
      4866 MEMB     36       PC       C33      cA      -0.338973       12.0100           0
      4867 MEMB     36       PC       H3A      hX       0.172230       1.00800           0
      4868 MEMB     36       PC       H3B      hX       0.172230       1.00800           0
      4869 MEMB     36       PC       H3C      hX       0.172230       1.00800           0
      4870 MEMB     36       PC       C34      cA      -0.338973       12.0100           0
      4871 MEMB     36       PC       H4A      hX       0.172230       1.00800           0
      4872 MEMB     36       PC       H4B      hX       0.172230       1.00800           0
      4873 MEMB     36       PC       H4C      hX       0.172230       1.00800           0
      4874 MEMB     36       PC       C35      cA      -0.338973       12.0100           0
      4875 MEMB     36       PC       H5A      hX       0.172230       1.00800           0
      4876 MEMB     36       PC       H5B      hX       0.172230       1.00800           0
      4877 MEMB     36       PC       H5C      hX       0.172230       1.00800           0
      4878 MEMB     36       PC       O33      oP      -0.875812       16.0000           0
      4879 MEMB     36       PC       O34      oP      -0.875812       16.0000           0
      4880 MEMB     36       PC       O21      oS      -0.552948       16.0000           0
      4881 MEMB     36       PC       C21      cC       0.897613       12.0100           0
      4882 MEMB     36       PC       O22      oC      -0.673755       16.0000           0
      4883 MEMB     36       OL       C12      cD      -0.143418       12.0100           0
      4884 MEMB     36       OL       H2R      hL       0.428610E-01   1.00800           0
      4885 MEMB     36       OL       H2S      hL       0.428610E-01   1.00800           0
      4886 MEMB     36       OL       C13      cD       0.161900E-02   12.0100           0
      4887 MEMB     36       OL       H3R      hL       0.195290E-01   1.00800           0
      4888 MEMB     36       OL       H3S      hL       0.195290E-01   1.00800           0
      4889 MEMB     36       OL       C14      cD      -0.229600E-01   12.0100           0
      4890 MEMB     36       OL       H4R      hL       0.181340E-01   1.00800           0
      4891 MEMB     36       OL       H4S      hL       0.181340E-01   1.00800           0
      4892 MEMB     36       OL       C15      cD      -0.166920E-01   12.0100           0
      4893 MEMB     36       OL       H5R      hL       0.869000E-02   1.00800           0
      4894 MEMB     36       OL       H5S      hL       0.869000E-02   1.00800           0
      4895 MEMB     36       OL       C16      cD      -0.237890E-01   12.0100           0
      4896 MEMB     36       OL       H6R      hL       0.926600E-02   1.00800           0
      4897 MEMB     36       OL       H6S      hL       0.926600E-02   1.00800           0
      4898 MEMB     36       OL       C17      cD      -0.174950E-01   12.0100           0
      4899 MEMB     36       OL       H7R      hL       0.195980E-01   1.00800           0
      4900 MEMB     36       OL       H7S      hL       0.195980E-01   1.00800           0
      4901 MEMB     36       OL       C18      cD       0.317750E-01   12.0100           0
      4902 MEMB     36       OL       H8R      hL       0.326850E-01   1.00800           0
      4903 MEMB     36       OL       H8S      hL       0.326850E-01   1.00800           0
      4904 MEMB     36       OL       C19      cB      -0.244228       12.0100           0
      4905 MEMB     36       OL       H9R      hB       0.131512       1.00800           0
      4906 MEMB     36       OL       C110     cB      -0.239284       12.0100           0
      4907 MEMB     36       OL       H10R     hB       0.126878       1.00800           0
      4908 MEMB     36       OL       C111     cD       0.290590E-01   12.0100           0
      4909 MEMB     36       OL       H11R     hL       0.335310E-01   1.00800           0
      4910 MEMB     36       OL       H11S     hL       0.335310E-01   1.00800           0
      4911 MEMB     36       OL       C112     cD      -0.263530E-01   12.0100           0
      4912 MEMB     36       OL       H12R     hL       0.197170E-01   1.00800           0
      4913 MEMB     36       OL       H12S     hL       0.197170E-01   1.00800           0
      4914 MEMB     36       OL       C113     cD      -0.182570E-01   12.0100           0
      4915 MEMB     36       OL       H13R     hL       0.138000E-01   1.00800           0
      4916 MEMB     36       OL       H13S     hL       0.138000E-01   1.00800           0
      4917 MEMB     36       OL       C114     cD      -0.248490E-01   12.0100           0
      4918 MEMB     36       OL       H14R     hL       0.857200E-02   1.00800           0
      4919 MEMB     36       OL       H14S     hL       0.857200E-02   1.00800           0
      4920 MEMB     36       OL       C115     cD      -0.232470E-01   12.0100           0
      4921 MEMB     36       OL       H15R     hL       0.104030E-01   1.00800           0
      4922 MEMB     36       OL       H15S     hL       0.104030E-01   1.00800           0
      4923 MEMB     36       OL       C116     cD      -0.124880E-01   12.0100           0
      4924 MEMB     36       OL       H16R     hL       0.136590E-01   1.00800           0
      4925 MEMB     36       OL       H16S     hL       0.136590E-01   1.00800           0
      4926 MEMB     36       OL       C117     cD       0.868400E-02   12.0100           0
      4927 MEMB     36       OL       H17R     hL       0.100260E-01   1.00800           0
      4928 MEMB     36       OL       H17S     hL       0.100260E-01   1.00800           0
      4929 MEMB     36       OL       C118     cD      -0.117290       12.0100           0
      4930 MEMB     36       OL       H18R     hL       0.266270E-01   1.00800           0
      4931 MEMB     36       OL       H18S     hL       0.266270E-01   1.00800           0
      4932 MEMB     36       OL       H18T     hL       0.266270E-01   1.00800           0
      4933 MEMB     37       PA       C116     cD      -0.125447       12.0100           0
      4934 MEMB     37       PA       H16R     hL       0.290470E-01   1.00800           0
      4935 MEMB     37       PA       H16S     hL       0.290470E-01   1.00800           0
      4936 MEMB     37       PA       H16T     hL       0.290470E-01   1.00800           0
      4937 MEMB     37       PA       C115     cD       0.139750E-01   12.0100           0
      4938 MEMB     37       PA       H15R     hL       0.929200E-02   1.00800           0
      4939 MEMB     37       PA       H15S     hL       0.929200E-02   1.00800           0
      4940 MEMB     37       PA       C114     cD      -0.200860E-01   12.0100           0
      4941 MEMB     37       PA       H14R     hL       0.159290E-01   1.00800           0
      4942 MEMB     37       PA       H14S     hL       0.159290E-01   1.00800           0
      4943 MEMB     37       PA       C113     cD      -0.330960E-01   12.0100           0
      4944 MEMB     37       PA       H13R     hL       0.146210E-01   1.00800           0
      4945 MEMB     37       PA       H13S     hL       0.146210E-01   1.00800           0
      4946 MEMB     37       PA       C112     cD      -0.276330E-01   12.0100           0
      4947 MEMB     37       PA       H12R     hL       0.113680E-01   1.00800           0
      4948 MEMB     37       PA       H12S     hL       0.113680E-01   1.00800           0
      4949 MEMB     37       PA       C111     cD      -0.252060E-01   12.0100           0
      4950 MEMB     37       PA       H11R     hL       0.143340E-01   1.00800           0
      4951 MEMB     37       PA       H11S     hL       0.143340E-01   1.00800           0
      4952 MEMB     37       PA       C110     cD      -0.288310E-01   12.0100           0
      4953 MEMB     37       PA       H10R     hL       0.146910E-01   1.00800           0
      4954 MEMB     37       PA       H10S     hL       0.146910E-01   1.00800           0
      4955 MEMB     37       PA       C19      cD      -0.304720E-01   12.0100           0
      4956 MEMB     37       PA       H9R      hL       0.138970E-01   1.00800           0
      4957 MEMB     37       PA       H9S      hL       0.138970E-01   1.00800           0
      4958 MEMB     37       PA       C18      cD      -0.157930E-01   12.0100           0
      4959 MEMB     37       PA       H8R      hL       0.906700E-02   1.00800           0
      4960 MEMB     37       PA       H8S      hL       0.906700E-02   1.00800           0
      4961 MEMB     37       PA       C17      cD      -0.196300E-01   12.0100           0
      4962 MEMB     37       PA       H7R      hL       0.110410E-01   1.00800           0
      4963 MEMB     37       PA       H7S      hL       0.110410E-01   1.00800           0
      4964 MEMB     37       PA       C16      cD      -0.244270E-01   12.0100           0
      4965 MEMB     37       PA       H6R      hL       0.133340E-01   1.00800           0
      4966 MEMB     37       PA       H6S      hL       0.133340E-01   1.00800           0
      4967 MEMB     37       PA       C15      cD      -0.293870E-01   12.0100           0
      4968 MEMB     37       PA       H5R      hL       0.167630E-01   1.00800           0
      4969 MEMB     37       PA       H5S      hL       0.167630E-01   1.00800           0
      4970 MEMB     37       PA       C14      cD      -0.300990E-01   12.0100           0
      4971 MEMB     37       PA       H4R      hL       0.208770E-01   1.00800           0
      4972 MEMB     37       PA       H4S      hL       0.208770E-01   1.00800           0
      4973 MEMB     37       PA       C13      cD      -0.488200E-02   12.0100           0
      4974 MEMB     37       PA       H3R      hL       0.190070E-01   1.00800           0
      4975 MEMB     37       PA       H3S      hL       0.190070E-01   1.00800           0
      4976 MEMB     37       PA       C12      cD      -0.149259       12.0100           0
      4977 MEMB     37       PA       H2R      hL       0.473450E-01   1.00800           0
      4978 MEMB     37       PA       H2S      hL       0.473450E-01   1.00800           0
      4979 MEMB     37       PC       C11      cC       0.910403       12.0100           0
      4980 MEMB     37       PC       O12      oC      -0.671566       16.0000           0
      4981 MEMB     37       PC       O11      oS      -0.575489       16.0000           0
      4982 MEMB     37       PC       C1       cA       0.196939       12.0100           0
      4983 MEMB     37       PC       HR       hE       0.704690E-01   1.00800           0
      4984 MEMB     37       PC       HS       hE       0.704690E-01   1.00800           0
      4985 MEMB     37       PC       C2       cA       0.281242       12.0100           0
      4986 MEMB     37       PC       HX       hE       0.632530E-01   1.00800           0
      4987 MEMB     37       PC       C3       cA       0.174590E-01   12.0100           0
      4988 MEMB     37       PC       HA       hE       0.955910E-01   1.00800           0
      4989 MEMB     37       PC       HB       hE       0.955910E-01   1.00800           0
      4990 MEMB     37       PC       O31      oT      -0.509480       16.0000           0
      4991 MEMB     37       PC       P31      pA       1.339721       30.9700           0
      4992 MEMB     37       PC       O32      oT      -0.508176       16.0000           0
      4993 MEMB     37       PC       C31      cA       0.166801       12.0100           0
      4994 MEMB     37       PC       H1A      hE       0.785340E-01   1.00800           0
      4995 MEMB     37       PC       H1B      hE       0.785340E-01   1.00800           0
      4996 MEMB     37       PC       C32      cA      -0.170824       12.0100           0
      4997 MEMB     37       PC       H2A      hX       0.136415       1.00800           0
      4998 MEMB     37       PC       H2B      hX       0.136415       1.00800           0
      4999 MEMB     37       PC       N31      nA       0.245262       14.0100           0
      5000 MEMB     37       PC       C33      cA      -0.338973       12.0100           0
      5001 MEMB     37       PC       H3A      hX       0.172230       1.00800           0
      5002 MEMB     37       PC       H3B      hX       0.172230       1.00800           0
      5003 MEMB     37       PC       H3C      hX       0.172230       1.00800           0
      5004 MEMB     37       PC       C34      cA      -0.338973       12.0100           0
      5005 MEMB     37       PC       H4A      hX       0.172230       1.00800           0
      5006 MEMB     37       PC       H4B      hX       0.172230       1.00800           0
      5007 MEMB     37       PC       H4C      hX       0.172230       1.00800           0
      5008 MEMB     37       PC       C35      cA      -0.338973       12.0100           0
      5009 MEMB     37       PC       H5A      hX       0.172230       1.00800           0
      5010 MEMB     37       PC       H5B      hX       0.172230       1.00800           0
      5011 MEMB     37       PC       H5C      hX       0.172230       1.00800           0
      5012 MEMB     37       PC       O33      oP      -0.875812       16.0000           0
      5013 MEMB     37       PC       O34      oP      -0.875812       16.0000           0
      5014 MEMB     37       PC       O21      oS      -0.552948       16.0000           0
      5015 MEMB     37       PC       C21      cC       0.897613       12.0100           0
      5016 MEMB     37       PC       O22      oC      -0.673755       16.0000           0
      5017 MEMB     37       OL       C12      cD      -0.143418       12.0100           0
      5018 MEMB     37       OL       H2R      hL       0.428610E-01   1.00800           0
      5019 MEMB     37       OL       H2S      hL       0.428610E-01   1.00800           0
      5020 MEMB     37       OL       C13      cD       0.161900E-02   12.0100           0
      5021 MEMB     37       OL       H3R      hL       0.195290E-01   1.00800           0
      5022 MEMB     37       OL       H3S      hL       0.195290E-01   1.00800           0
      5023 MEMB     37       OL       C14      cD      -0.229600E-01   12.0100           0
      5024 MEMB     37       OL       H4R      hL       0.181340E-01   1.00800           0
      5025 MEMB     37       OL       H4S      hL       0.181340E-01   1.00800           0
      5026 MEMB     37       OL       C15      cD      -0.166920E-01   12.0100           0
      5027 MEMB     37       OL       H5R      hL       0.869000E-02   1.00800           0
      5028 MEMB     37       OL       H5S      hL       0.869000E-02   1.00800           0
      5029 MEMB     37       OL       C16      cD      -0.237890E-01   12.0100           0
      5030 MEMB     37       OL       H6R      hL       0.926600E-02   1.00800           0
      5031 MEMB     37       OL       H6S      hL       0.926600E-02   1.00800           0
      5032 MEMB     37       OL       C17      cD      -0.174950E-01   12.0100           0
      5033 MEMB     37       OL       H7R      hL       0.195980E-01   1.00800           0
      5034 MEMB     37       OL       H7S      hL       0.195980E-01   1.00800           0
      5035 MEMB     37       OL       C18      cD       0.317750E-01   12.0100           0
      5036 MEMB     37       OL       H8R      hL       0.326850E-01   1.00800           0
      5037 MEMB     37       OL       H8S      hL       0.326850E-01   1.00800           0
      5038 MEMB     37       OL       C19      cB      -0.244228       12.0100           0
      5039 MEMB     37       OL       H9R      hB       0.131512       1.00800           0
      5040 MEMB     37       OL       C110     cB      -0.239284       12.0100           0
      5041 MEMB     37       OL       H10R     hB       0.126878       1.00800           0
      5042 MEMB     37       OL       C111     cD       0.290590E-01   12.0100           0
      5043 MEMB     37       OL       H11R     hL       0.335310E-01   1.00800           0
      5044 MEMB     37       OL       H11S     hL       0.335310E-01   1.00800           0
      5045 MEMB     37       OL       C112     cD      -0.263530E-01   12.0100           0
      5046 MEMB     37       OL       H12R     hL       0.197170E-01   1.00800           0
      5047 MEMB     37       OL       H12S     hL       0.197170E-01   1.00800           0
      5048 MEMB     37       OL       C113     cD      -0.182570E-01   12.0100           0
      5049 MEMB     37       OL       H13R     hL       0.138000E-01   1.00800           0
      5050 MEMB     37       OL       H13S     hL       0.138000E-01   1.00800           0
      5051 MEMB     37       OL       C114     cD      -0.248490E-01   12.0100           0
      5052 MEMB     37       OL       H14R     hL       0.857200E-02   1.00800           0
      5053 MEMB     37       OL       H14S     hL       0.857200E-02   1.00800           0
      5054 MEMB     37       OL       C115     cD      -0.232470E-01   12.0100           0
      5055 MEMB     37       OL       H15R     hL       0.104030E-01   1.00800           0
      5056 MEMB     37       OL       H15S     hL       0.104030E-01   1.00800           0
      5057 MEMB     37       OL       C116     cD      -0.124880E-01   12.0100           0
      5058 MEMB     37       OL       H16R     hL       0.136590E-01   1.00800           0
      5059 MEMB     37       OL       H16S     hL       0.136590E-01   1.00800           0
      5060 MEMB     37       OL       C117     cD       0.868400E-02   12.0100           0
      5061 MEMB     37       OL       H17R     hL       0.100260E-01   1.00800           0
      5062 MEMB     37       OL       H17S     hL       0.100260E-01   1.00800           0
      5063 MEMB     37       OL       C118     cD      -0.117290       12.0100           0
      5064 MEMB     37       OL       H18R     hL       0.266270E-01   1.00800           0
      5065 MEMB     37       OL       H18S     hL       0.266270E-01   1.00800           0
      5066 MEMB     37       OL       H18T     hL       0.266270E-01   1.00800           0
      5067 MEMB     38       PA       C116     cD      -0.125447       12.0100           0
      5068 MEMB     38       PA       H16R     hL       0.290470E-01   1.00800           0
      5069 MEMB     38       PA       H16S     hL       0.290470E-01   1.00800           0
      5070 MEMB     38       PA       H16T     hL       0.290470E-01   1.00800           0
      5071 MEMB     38       PA       C115     cD       0.139750E-01   12.0100           0
      5072 MEMB     38       PA       H15R     hL       0.929200E-02   1.00800           0
      5073 MEMB     38       PA       H15S     hL       0.929200E-02   1.00800           0
      5074 MEMB     38       PA       C114     cD      -0.200860E-01   12.0100           0
      5075 MEMB     38       PA       H14R     hL       0.159290E-01   1.00800           0
      5076 MEMB     38       PA       H14S     hL       0.159290E-01   1.00800           0
      5077 MEMB     38       PA       C113     cD      -0.330960E-01   12.0100           0
      5078 MEMB     38       PA       H13R     hL       0.146210E-01   1.00800           0
      5079 MEMB     38       PA       H13S     hL       0.146210E-01   1.00800           0
      5080 MEMB     38       PA       C112     cD      -0.276330E-01   12.0100           0
      5081 MEMB     38       PA       H12R     hL       0.113680E-01   1.00800           0
      5082 MEMB     38       PA       H12S     hL       0.113680E-01   1.00800           0
      5083 MEMB     38       PA       C111     cD      -0.252060E-01   12.0100           0
      5084 MEMB     38       PA       H11R     hL       0.143340E-01   1.00800           0
      5085 MEMB     38       PA       H11S     hL       0.143340E-01   1.00800           0
      5086 MEMB     38       PA       C110     cD      -0.288310E-01   12.0100           0
      5087 MEMB     38       PA       H10R     hL       0.146910E-01   1.00800           0
      5088 MEMB     38       PA       H10S     hL       0.146910E-01   1.00800           0
      5089 MEMB     38       PA       C19      cD      -0.304720E-01   12.0100           0
      5090 MEMB     38       PA       H9R      hL       0.138970E-01   1.00800           0
      5091 MEMB     38       PA       H9S      hL       0.138970E-01   1.00800           0
      5092 MEMB     38       PA       C18      cD      -0.157930E-01   12.0100           0
      5093 MEMB     38       PA       H8R      hL       0.906700E-02   1.00800           0
      5094 MEMB     38       PA       H8S      hL       0.906700E-02   1.00800           0
      5095 MEMB     38       PA       C17      cD      -0.196300E-01   12.0100           0
      5096 MEMB     38       PA       H7R      hL       0.110410E-01   1.00800           0
      5097 MEMB     38       PA       H7S      hL       0.110410E-01   1.00800           0
      5098 MEMB     38       PA       C16      cD      -0.244270E-01   12.0100           0
      5099 MEMB     38       PA       H6R      hL       0.133340E-01   1.00800           0
      5100 MEMB     38       PA       H6S      hL       0.133340E-01   1.00800           0
      5101 MEMB     38       PA       C15      cD      -0.293870E-01   12.0100           0
      5102 MEMB     38       PA       H5R      hL       0.167630E-01   1.00800           0
      5103 MEMB     38       PA       H5S      hL       0.167630E-01   1.00800           0
      5104 MEMB     38       PA       C14      cD      -0.300990E-01   12.0100           0
      5105 MEMB     38       PA       H4R      hL       0.208770E-01   1.00800           0
      5106 MEMB     38       PA       H4S      hL       0.208770E-01   1.00800           0
      5107 MEMB     38       PA       C13      cD      -0.488200E-02   12.0100           0
      5108 MEMB     38       PA       H3R      hL       0.190070E-01   1.00800           0
      5109 MEMB     38       PA       H3S      hL       0.190070E-01   1.00800           0
      5110 MEMB     38       PA       C12      cD      -0.149259       12.0100           0
      5111 MEMB     38       PA       H2R      hL       0.473450E-01   1.00800           0
      5112 MEMB     38       PA       H2S      hL       0.473450E-01   1.00800           0
      5113 MEMB     38       PC       C11      cC       0.910403       12.0100           0
      5114 MEMB     38       PC       O12      oC      -0.671566       16.0000           0
      5115 MEMB     38       PC       O11      oS      -0.575489       16.0000           0
      5116 MEMB     38       PC       C1       cA       0.196939       12.0100           0
      5117 MEMB     38       PC       HR       hE       0.704690E-01   1.00800           0
      5118 MEMB     38       PC       HS       hE       0.704690E-01   1.00800           0
      5119 MEMB     38       PC       C2       cA       0.281242       12.0100           0
      5120 MEMB     38       PC       HX       hE       0.632530E-01   1.00800           0
      5121 MEMB     38       PC       C3       cA       0.174590E-01   12.0100           0
      5122 MEMB     38       PC       HA       hE       0.955910E-01   1.00800           0
      5123 MEMB     38       PC       HB       hE       0.955910E-01   1.00800           0
      5124 MEMB     38       PC       O31      oT      -0.509480       16.0000           0
      5125 MEMB     38       PC       P31      pA       1.339721       30.9700           0
      5126 MEMB     38       PC       O32      oT      -0.508176       16.0000           0
      5127 MEMB     38       PC       C31      cA       0.166801       12.0100           0
      5128 MEMB     38       PC       H1A      hE       0.785340E-01   1.00800           0
      5129 MEMB     38       PC       H1B      hE       0.785340E-01   1.00800           0
      5130 MEMB     38       PC       C32      cA      -0.170824       12.0100           0
      5131 MEMB     38       PC       H2A      hX       0.136415       1.00800           0
      5132 MEMB     38       PC       H2B      hX       0.136415       1.00800           0
      5133 MEMB     38       PC       N31      nA       0.245262       14.0100           0
      5134 MEMB     38       PC       C33      cA      -0.338973       12.0100           0
      5135 MEMB     38       PC       H3A      hX       0.172230       1.00800           0
      5136 MEMB     38       PC       H3B      hX       0.172230       1.00800           0
      5137 MEMB     38       PC       H3C      hX       0.172230       1.00800           0
      5138 MEMB     38       PC       C34      cA      -0.338973       12.0100           0
      5139 MEMB     38       PC       H4A      hX       0.172230       1.00800           0
      5140 MEMB     38       PC       H4B      hX       0.172230       1.00800           0
      5141 MEMB     38       PC       H4C      hX       0.172230       1.00800           0
      5142 MEMB     38       PC       C35      cA      -0.338973       12.0100           0
      5143 MEMB     38       PC       H5A      hX       0.172230       1.00800           0
      5144 MEMB     38       PC       H5B      hX       0.172230       1.00800           0
      5145 MEMB     38       PC       H5C      hX       0.172230       1.00800           0
      5146 MEMB     38       PC       O33      oP      -0.875812       16.0000           0
      5147 MEMB     38       PC       O34      oP      -0.875812       16.0000           0
      5148 MEMB     38       PC       O21      oS      -0.552948       16.0000           0
      5149 MEMB     38       PC       C21      cC       0.897613       12.0100           0
      5150 MEMB     38       PC       O22      oC      -0.673755       16.0000           0
      5151 MEMB     38       OL       C12      cD      -0.143418       12.0100           0
      5152 MEMB     38       OL       H2R      hL       0.428610E-01   1.00800           0
      5153 MEMB     38       OL       H2S      hL       0.428610E-01   1.00800           0
      5154 MEMB     38       OL       C13      cD       0.161900E-02   12.0100           0
      5155 MEMB     38       OL       H3R      hL       0.195290E-01   1.00800           0
      5156 MEMB     38       OL       H3S      hL       0.195290E-01   1.00800           0
      5157 MEMB     38       OL       C14      cD      -0.229600E-01   12.0100           0
      5158 MEMB     38       OL       H4R      hL       0.181340E-01   1.00800           0
      5159 MEMB     38       OL       H4S      hL       0.181340E-01   1.00800           0
      5160 MEMB     38       OL       C15      cD      -0.166920E-01   12.0100           0
      5161 MEMB     38       OL       H5R      hL       0.869000E-02   1.00800           0
      5162 MEMB     38       OL       H5S      hL       0.869000E-02   1.00800           0
      5163 MEMB     38       OL       C16      cD      -0.237890E-01   12.0100           0
      5164 MEMB     38       OL       H6R      hL       0.926600E-02   1.00800           0
      5165 MEMB     38       OL       H6S      hL       0.926600E-02   1.00800           0
      5166 MEMB     38       OL       C17      cD      -0.174950E-01   12.0100           0
      5167 MEMB     38       OL       H7R      hL       0.195980E-01   1.00800           0
      5168 MEMB     38       OL       H7S      hL       0.195980E-01   1.00800           0
      5169 MEMB     38       OL       C18      cD       0.317750E-01   12.0100           0
      5170 MEMB     38       OL       H8R      hL       0.326850E-01   1.00800           0
      5171 MEMB     38       OL       H8S      hL       0.326850E-01   1.00800           0
      5172 MEMB     38       OL       C19      cB      -0.244228       12.0100           0
      5173 MEMB     38       OL       H9R      hB       0.131512       1.00800           0
      5174 MEMB     38       OL       C110     cB      -0.239284       12.0100           0
      5175 MEMB     38       OL       H10R     hB       0.126878       1.00800           0
      5176 MEMB     38       OL       C111     cD       0.290590E-01   12.0100           0
      5177 MEMB     38       OL       H11R     hL       0.335310E-01   1.00800           0
      5178 MEMB     38       OL       H11S     hL       0.335310E-01   1.00800           0
      5179 MEMB     38       OL       C112     cD      -0.263530E-01   12.0100           0
      5180 MEMB     38       OL       H12R     hL       0.197170E-01   1.00800           0
      5181 MEMB     38       OL       H12S     hL       0.197170E-01   1.00800           0
      5182 MEMB     38       OL       C113     cD      -0.182570E-01   12.0100           0
      5183 MEMB     38       OL       H13R     hL       0.138000E-01   1.00800           0
      5184 MEMB     38       OL       H13S     hL       0.138000E-01   1.00800           0
      5185 MEMB     38       OL       C114     cD      -0.248490E-01   12.0100           0
      5186 MEMB     38       OL       H14R     hL       0.857200E-02   1.00800           0
      5187 MEMB     38       OL       H14S     hL       0.857200E-02   1.00800           0
      5188 MEMB     38       OL       C115     cD      -0.232470E-01   12.0100           0
      5189 MEMB     38       OL       H15R     hL       0.104030E-01   1.00800           0
      5190 MEMB     38       OL       H15S     hL       0.104030E-01   1.00800           0
      5191 MEMB     38       OL       C116     cD      -0.124880E-01   12.0100           0
      5192 MEMB     38       OL       H16R     hL       0.136590E-01   1.00800           0
      5193 MEMB     38       OL       H16S     hL       0.136590E-01   1.00800           0
      5194 MEMB     38       OL       C117     cD       0.868400E-02   12.0100           0
      5195 MEMB     38       OL       H17R     hL       0.100260E-01   1.00800           0
      5196 MEMB     38       OL       H17S     hL       0.100260E-01   1.00800           0
      5197 MEMB     38       OL       C118     cD      -0.117290       12.0100           0
      5198 MEMB     38       OL       H18R     hL       0.266270E-01   1.00800           0
      5199 MEMB     38       OL       H18S     hL       0.266270E-01   1.00800           0
      5200 MEMB     38       OL       H18T     hL       0.266270E-01   1.00800           0
      5201 MEMB     39       PA       C116     cD      -0.125447       12.0100           0
      5202 MEMB     39       PA       H16R     hL       0.290470E-01   1.00800           0
      5203 MEMB     39       PA       H16S     hL       0.290470E-01   1.00800           0
      5204 MEMB     39       PA       H16T     hL       0.290470E-01   1.00800           0
      5205 MEMB     39       PA       C115     cD       0.139750E-01   12.0100           0
      5206 MEMB     39       PA       H15R     hL       0.929200E-02   1.00800           0
      5207 MEMB     39       PA       H15S     hL       0.929200E-02   1.00800           0
      5208 MEMB     39       PA       C114     cD      -0.200860E-01   12.0100           0
      5209 MEMB     39       PA       H14R     hL       0.159290E-01   1.00800           0
      5210 MEMB     39       PA       H14S     hL       0.159290E-01   1.00800           0
      5211 MEMB     39       PA       C113     cD      -0.330960E-01   12.0100           0
      5212 MEMB     39       PA       H13R     hL       0.146210E-01   1.00800           0
      5213 MEMB     39       PA       H13S     hL       0.146210E-01   1.00800           0
      5214 MEMB     39       PA       C112     cD      -0.276330E-01   12.0100           0
      5215 MEMB     39       PA       H12R     hL       0.113680E-01   1.00800           0
      5216 MEMB     39       PA       H12S     hL       0.113680E-01   1.00800           0
      5217 MEMB     39       PA       C111     cD      -0.252060E-01   12.0100           0
      5218 MEMB     39       PA       H11R     hL       0.143340E-01   1.00800           0
      5219 MEMB     39       PA       H11S     hL       0.143340E-01   1.00800           0
      5220 MEMB     39       PA       C110     cD      -0.288310E-01   12.0100           0
      5221 MEMB     39       PA       H10R     hL       0.146910E-01   1.00800           0
      5222 MEMB     39       PA       H10S     hL       0.146910E-01   1.00800           0
      5223 MEMB     39       PA       C19      cD      -0.304720E-01   12.0100           0
      5224 MEMB     39       PA       H9R      hL       0.138970E-01   1.00800           0
      5225 MEMB     39       PA       H9S      hL       0.138970E-01   1.00800           0
      5226 MEMB     39       PA       C18      cD      -0.157930E-01   12.0100           0
      5227 MEMB     39       PA       H8R      hL       0.906700E-02   1.00800           0
      5228 MEMB     39       PA       H8S      hL       0.906700E-02   1.00800           0
      5229 MEMB     39       PA       C17      cD      -0.196300E-01   12.0100           0
      5230 MEMB     39       PA       H7R      hL       0.110410E-01   1.00800           0
      5231 MEMB     39       PA       H7S      hL       0.110410E-01   1.00800           0
      5232 MEMB     39       PA       C16      cD      -0.244270E-01   12.0100           0
      5233 MEMB     39       PA       H6R      hL       0.133340E-01   1.00800           0
      5234 MEMB     39       PA       H6S      hL       0.133340E-01   1.00800           0
      5235 MEMB     39       PA       C15      cD      -0.293870E-01   12.0100           0
      5236 MEMB     39       PA       H5R      hL       0.167630E-01   1.00800           0
      5237 MEMB     39       PA       H5S      hL       0.167630E-01   1.00800           0
      5238 MEMB     39       PA       C14      cD      -0.300990E-01   12.0100           0
      5239 MEMB     39       PA       H4R      hL       0.208770E-01   1.00800           0
      5240 MEMB     39       PA       H4S      hL       0.208770E-01   1.00800           0
      5241 MEMB     39       PA       C13      cD      -0.488200E-02   12.0100           0
      5242 MEMB     39       PA       H3R      hL       0.190070E-01   1.00800           0
      5243 MEMB     39       PA       H3S      hL       0.190070E-01   1.00800           0
      5244 MEMB     39       PA       C12      cD      -0.149259       12.0100           0
      5245 MEMB     39       PA       H2R      hL       0.473450E-01   1.00800           0
      5246 MEMB     39       PA       H2S      hL       0.473450E-01   1.00800           0
      5247 MEMB     39       PC       C11      cC       0.910403       12.0100           0
      5248 MEMB     39       PC       O12      oC      -0.671566       16.0000           0
      5249 MEMB     39       PC       O11      oS      -0.575489       16.0000           0
      5250 MEMB     39       PC       C1       cA       0.196939       12.0100           0
      5251 MEMB     39       PC       HR       hE       0.704690E-01   1.00800           0
      5252 MEMB     39       PC       HS       hE       0.704690E-01   1.00800           0
      5253 MEMB     39       PC       C2       cA       0.281242       12.0100           0
      5254 MEMB     39       PC       HX       hE       0.632530E-01   1.00800           0
      5255 MEMB     39       PC       C3       cA       0.174590E-01   12.0100           0
      5256 MEMB     39       PC       HA       hE       0.955910E-01   1.00800           0
      5257 MEMB     39       PC       HB       hE       0.955910E-01   1.00800           0
      5258 MEMB     39       PC       O31      oT      -0.509480       16.0000           0
      5259 MEMB     39       PC       P31      pA       1.339721       30.9700           0
      5260 MEMB     39       PC       O32      oT      -0.508176       16.0000           0
      5261 MEMB     39       PC       C31      cA       0.166801       12.0100           0
      5262 MEMB     39       PC       H1A      hE       0.785340E-01   1.00800           0
      5263 MEMB     39       PC       H1B      hE       0.785340E-01   1.00800           0
      5264 MEMB     39       PC       C32      cA      -0.170824       12.0100           0
      5265 MEMB     39       PC       H2A      hX       0.136415       1.00800           0
      5266 MEMB     39       PC       H2B      hX       0.136415       1.00800           0
      5267 MEMB     39       PC       N31      nA       0.245262       14.0100           0
      5268 MEMB     39       PC       C33      cA      -0.338973       12.0100           0
      5269 MEMB     39       PC       H3A      hX       0.172230       1.00800           0
      5270 MEMB     39       PC       H3B      hX       0.172230       1.00800           0
      5271 MEMB     39       PC       H3C      hX       0.172230       1.00800           0
      5272 MEMB     39       PC       C34      cA      -0.338973       12.0100           0
      5273 MEMB     39       PC       H4A      hX       0.172230       1.00800           0
      5274 MEMB     39       PC       H4B      hX       0.172230       1.00800           0
      5275 MEMB     39       PC       H4C      hX       0.172230       1.00800           0
      5276 MEMB     39       PC       C35      cA      -0.338973       12.0100           0
      5277 MEMB     39       PC       H5A      hX       0.172230       1.00800           0
      5278 MEMB     39       PC       H5B      hX       0.172230       1.00800           0
      5279 MEMB     39       PC       H5C      hX       0.172230       1.00800           0
      5280 MEMB     39       PC       O33      oP      -0.875812       16.0000           0
      5281 MEMB     39       PC       O34      oP      -0.875812       16.0000           0
      5282 MEMB     39       PC       O21      oS      -0.552948       16.0000           0
      5283 MEMB     39       PC       C21      cC       0.897613       12.0100           0
      5284 MEMB     39       PC       O22      oC      -0.673755       16.0000           0
      5285 MEMB     39       OL       C12      cD      -0.143418       12.0100           0
      5286 MEMB     39       OL       H2R      hL       0.428610E-01   1.00800           0
      5287 MEMB     39       OL       H2S      hL       0.428610E-01   1.00800           0
      5288 MEMB     39       OL       C13      cD       0.161900E-02   12.0100           0
      5289 MEMB     39       OL       H3R      hL       0.195290E-01   1.00800           0
      5290 MEMB     39       OL       H3S      hL       0.195290E-01   1.00800           0
      5291 MEMB     39       OL       C14      cD      -0.229600E-01   12.0100           0
      5292 MEMB     39       OL       H4R      hL       0.181340E-01   1.00800           0
      5293 MEMB     39       OL       H4S      hL       0.181340E-01   1.00800           0
      5294 MEMB     39       OL       C15      cD      -0.166920E-01   12.0100           0
      5295 MEMB     39       OL       H5R      hL       0.869000E-02   1.00800           0
      5296 MEMB     39       OL       H5S      hL       0.869000E-02   1.00800           0
      5297 MEMB     39       OL       C16      cD      -0.237890E-01   12.0100           0
      5298 MEMB     39       OL       H6R      hL       0.926600E-02   1.00800           0
      5299 MEMB     39       OL       H6S      hL       0.926600E-02   1.00800           0
      5300 MEMB     39       OL       C17      cD      -0.174950E-01   12.0100           0
      5301 MEMB     39       OL       H7R      hL       0.195980E-01   1.00800           0
      5302 MEMB     39       OL       H7S      hL       0.195980E-01   1.00800           0
      5303 MEMB     39       OL       C18      cD       0.317750E-01   12.0100           0
      5304 MEMB     39       OL       H8R      hL       0.326850E-01   1.00800           0
      5305 MEMB     39       OL       H8S      hL       0.326850E-01   1.00800           0
      5306 MEMB     39       OL       C19      cB      -0.244228       12.0100           0
      5307 MEMB     39       OL       H9R      hB       0.131512       1.00800           0
      5308 MEMB     39       OL       C110     cB      -0.239284       12.0100           0
      5309 MEMB     39       OL       H10R     hB       0.126878       1.00800           0
      5310 MEMB     39       OL       C111     cD       0.290590E-01   12.0100           0
      5311 MEMB     39       OL       H11R     hL       0.335310E-01   1.00800           0
      5312 MEMB     39       OL       H11S     hL       0.335310E-01   1.00800           0
      5313 MEMB     39       OL       C112     cD      -0.263530E-01   12.0100           0
      5314 MEMB     39       OL       H12R     hL       0.197170E-01   1.00800           0
      5315 MEMB     39       OL       H12S     hL       0.197170E-01   1.00800           0
      5316 MEMB     39       OL       C113     cD      -0.182570E-01   12.0100           0
      5317 MEMB     39       OL       H13R     hL       0.138000E-01   1.00800           0
      5318 MEMB     39       OL       H13S     hL       0.138000E-01   1.00800           0
      5319 MEMB     39       OL       C114     cD      -0.248490E-01   12.0100           0
      5320 MEMB     39       OL       H14R     hL       0.857200E-02   1.00800           0
      5321 MEMB     39       OL       H14S     hL       0.857200E-02   1.00800           0
      5322 MEMB     39       OL       C115     cD      -0.232470E-01   12.0100           0
      5323 MEMB     39       OL       H15R     hL       0.104030E-01   1.00800           0
      5324 MEMB     39       OL       H15S     hL       0.104030E-01   1.00800           0
      5325 MEMB     39       OL       C116     cD      -0.124880E-01   12.0100           0
      5326 MEMB     39       OL       H16R     hL       0.136590E-01   1.00800           0
      5327 MEMB     39       OL       H16S     hL       0.136590E-01   1.00800           0
      5328 MEMB     39       OL       C117     cD       0.868400E-02   12.0100           0
      5329 MEMB     39       OL       H17R     hL       0.100260E-01   1.00800           0
      5330 MEMB     39       OL       H17S     hL       0.100260E-01   1.00800           0
      5331 MEMB     39       OL       C118     cD      -0.117290       12.0100           0
      5332 MEMB     39       OL       H18R     hL       0.266270E-01   1.00800           0
      5333 MEMB     39       OL       H18S     hL       0.266270E-01   1.00800           0
      5334 MEMB     39       OL       H18T     hL       0.266270E-01   1.00800           0
      5335 MEMB     40       PA       C116     cD      -0.125447       12.0100           0
      5336 MEMB     40       PA       H16R     hL       0.290470E-01   1.00800           0
      5337 MEMB     40       PA       H16S     hL       0.290470E-01   1.00800           0
      5338 MEMB     40       PA       H16T     hL       0.290470E-01   1.00800           0
      5339 MEMB     40       PA       C115     cD       0.139750E-01   12.0100           0
      5340 MEMB     40       PA       H15R     hL       0.929200E-02   1.00800           0
      5341 MEMB     40       PA       H15S     hL       0.929200E-02   1.00800           0
      5342 MEMB     40       PA       C114     cD      -0.200860E-01   12.0100           0
      5343 MEMB     40       PA       H14R     hL       0.159290E-01   1.00800           0
      5344 MEMB     40       PA       H14S     hL       0.159290E-01   1.00800           0
      5345 MEMB     40       PA       C113     cD      -0.330960E-01   12.0100           0
      5346 MEMB     40       PA       H13R     hL       0.146210E-01   1.00800           0
      5347 MEMB     40       PA       H13S     hL       0.146210E-01   1.00800           0
      5348 MEMB     40       PA       C112     cD      -0.276330E-01   12.0100           0
      5349 MEMB     40       PA       H12R     hL       0.113680E-01   1.00800           0
      5350 MEMB     40       PA       H12S     hL       0.113680E-01   1.00800           0
      5351 MEMB     40       PA       C111     cD      -0.252060E-01   12.0100           0
      5352 MEMB     40       PA       H11R     hL       0.143340E-01   1.00800           0
      5353 MEMB     40       PA       H11S     hL       0.143340E-01   1.00800           0
      5354 MEMB     40       PA       C110     cD      -0.288310E-01   12.0100           0
      5355 MEMB     40       PA       H10R     hL       0.146910E-01   1.00800           0
      5356 MEMB     40       PA       H10S     hL       0.146910E-01   1.00800           0
      5357 MEMB     40       PA       C19      cD      -0.304720E-01   12.0100           0
      5358 MEMB     40       PA       H9R      hL       0.138970E-01   1.00800           0
      5359 MEMB     40       PA       H9S      hL       0.138970E-01   1.00800           0
      5360 MEMB     40       PA       C18      cD      -0.157930E-01   12.0100           0
      5361 MEMB     40       PA       H8R      hL       0.906700E-02   1.00800           0
      5362 MEMB     40       PA       H8S      hL       0.906700E-02   1.00800           0
      5363 MEMB     40       PA       C17      cD      -0.196300E-01   12.0100           0
      5364 MEMB     40       PA       H7R      hL       0.110410E-01   1.00800           0
      5365 MEMB     40       PA       H7S      hL       0.110410E-01   1.00800           0
      5366 MEMB     40       PA       C16      cD      -0.244270E-01   12.0100           0
      5367 MEMB     40       PA       H6R      hL       0.133340E-01   1.00800           0
      5368 MEMB     40       PA       H6S      hL       0.133340E-01   1.00800           0
      5369 MEMB     40       PA       C15      cD      -0.293870E-01   12.0100           0
      5370 MEMB     40       PA       H5R      hL       0.167630E-01   1.00800           0
      5371 MEMB     40       PA       H5S      hL       0.167630E-01   1.00800           0
      5372 MEMB     40       PA       C14      cD      -0.300990E-01   12.0100           0
      5373 MEMB     40       PA       H4R      hL       0.208770E-01   1.00800           0
      5374 MEMB     40       PA       H4S      hL       0.208770E-01   1.00800           0
      5375 MEMB     40       PA       C13      cD      -0.488200E-02   12.0100           0
      5376 MEMB     40       PA       H3R      hL       0.190070E-01   1.00800           0
      5377 MEMB     40       PA       H3S      hL       0.190070E-01   1.00800           0
      5378 MEMB     40       PA       C12      cD      -0.149259       12.0100           0
      5379 MEMB     40       PA       H2R      hL       0.473450E-01   1.00800           0
      5380 MEMB     40       PA       H2S      hL       0.473450E-01   1.00800           0
      5381 MEMB     40       PC       C11      cC       0.910403       12.0100           0
      5382 MEMB     40       PC       O12      oC      -0.671566       16.0000           0
      5383 MEMB     40       PC       O11      oS      -0.575489       16.0000           0
      5384 MEMB     40       PC       C1       cA       0.196939       12.0100           0
      5385 MEMB     40       PC       HR       hE       0.704690E-01   1.00800           0
      5386 MEMB     40       PC       HS       hE       0.704690E-01   1.00800           0
      5387 MEMB     40       PC       C2       cA       0.281242       12.0100           0
      5388 MEMB     40       PC       HX       hE       0.632530E-01   1.00800           0
      5389 MEMB     40       PC       C3       cA       0.174590E-01   12.0100           0
      5390 MEMB     40       PC       HA       hE       0.955910E-01   1.00800           0
      5391 MEMB     40       PC       HB       hE       0.955910E-01   1.00800           0
      5392 MEMB     40       PC       O31      oT      -0.509480       16.0000           0
      5393 MEMB     40       PC       P31      pA       1.339721       30.9700           0
      5394 MEMB     40       PC       O32      oT      -0.508176       16.0000           0
      5395 MEMB     40       PC       C31      cA       0.166801       12.0100           0
      5396 MEMB     40       PC       H1A      hE       0.785340E-01   1.00800           0
      5397 MEMB     40       PC       H1B      hE       0.785340E-01   1.00800           0
      5398 MEMB     40       PC       C32      cA      -0.170824       12.0100           0
      5399 MEMB     40       PC       H2A      hX       0.136415       1.00800           0
      5400 MEMB     40       PC       H2B      hX       0.136415       1.00800           0
      5401 MEMB     40       PC       N31      nA       0.245262       14.0100           0
      5402 MEMB     40       PC       C33      cA      -0.338973       12.0100           0
      5403 MEMB     40       PC       H3A      hX       0.172230       1.00800           0
      5404 MEMB     40       PC       H3B      hX       0.172230       1.00800           0
      5405 MEMB     40       PC       H3C      hX       0.172230       1.00800           0
      5406 MEMB     40       PC       C34      cA      -0.338973       12.0100           0
      5407 MEMB     40       PC       H4A      hX       0.172230       1.00800           0
      5408 MEMB     40       PC       H4B      hX       0.172230       1.00800           0
      5409 MEMB     40       PC       H4C      hX       0.172230       1.00800           0
      5410 MEMB     40       PC       C35      cA      -0.338973       12.0100           0
      5411 MEMB     40       PC       H5A      hX       0.172230       1.00800           0
      5412 MEMB     40       PC       H5B      hX       0.172230       1.00800           0
      5413 MEMB     40       PC       H5C      hX       0.172230       1.00800           0
      5414 MEMB     40       PC       O33      oP      -0.875812       16.0000           0
      5415 MEMB     40       PC       O34      oP      -0.875812       16.0000           0
      5416 MEMB     40       PC       O21      oS      -0.552948       16.0000           0
      5417 MEMB     40       PC       C21      cC       0.897613       12.0100           0
      5418 MEMB     40       PC       O22      oC      -0.673755       16.0000           0
      5419 MEMB     40       OL       C12      cD      -0.143418       12.0100           0
      5420 MEMB     40       OL       H2R      hL       0.428610E-01   1.00800           0
      5421 MEMB     40       OL       H2S      hL       0.428610E-01   1.00800           0
      5422 MEMB     40       OL       C13      cD       0.161900E-02   12.0100           0
      5423 MEMB     40       OL       H3R      hL       0.195290E-01   1.00800           0
      5424 MEMB     40       OL       H3S      hL       0.195290E-01   1.00800           0
      5425 MEMB     40       OL       C14      cD      -0.229600E-01   12.0100           0
      5426 MEMB     40       OL       H4R      hL       0.181340E-01   1.00800           0
      5427 MEMB     40       OL       H4S      hL       0.181340E-01   1.00800           0
      5428 MEMB     40       OL       C15      cD      -0.166920E-01   12.0100           0
      5429 MEMB     40       OL       H5R      hL       0.869000E-02   1.00800           0
      5430 MEMB     40       OL       H5S      hL       0.869000E-02   1.00800           0
      5431 MEMB     40       OL       C16      cD      -0.237890E-01   12.0100           0
      5432 MEMB     40       OL       H6R      hL       0.926600E-02   1.00800           0
      5433 MEMB     40       OL       H6S      hL       0.926600E-02   1.00800           0
      5434 MEMB     40       OL       C17      cD      -0.174950E-01   12.0100           0
      5435 MEMB     40       OL       H7R      hL       0.195980E-01   1.00800           0
      5436 MEMB     40       OL       H7S      hL       0.195980E-01   1.00800           0
      5437 MEMB     40       OL       C18      cD       0.317750E-01   12.0100           0
      5438 MEMB     40       OL       H8R      hL       0.326850E-01   1.00800           0
      5439 MEMB     40       OL       H8S      hL       0.326850E-01   1.00800           0
      5440 MEMB     40       OL       C19      cB      -0.244228       12.0100           0
      5441 MEMB     40       OL       H9R      hB       0.131512       1.00800           0
      5442 MEMB     40       OL       C110     cB      -0.239284       12.0100           0
      5443 MEMB     40       OL       H10R     hB       0.126878       1.00800           0
      5444 MEMB     40       OL       C111     cD       0.290590E-01   12.0100           0
      5445 MEMB     40       OL       H11R     hL       0.335310E-01   1.00800           0
      5446 MEMB     40       OL       H11S     hL       0.335310E-01   1.00800           0
      5447 MEMB     40       OL       C112     cD      -0.263530E-01   12.0100           0
      5448 MEMB     40       OL       H12R     hL       0.197170E-01   1.00800           0
      5449 MEMB     40       OL       H12S     hL       0.197170E-01   1.00800           0
      5450 MEMB     40       OL       C113     cD      -0.182570E-01   12.0100           0
      5451 MEMB     40       OL       H13R     hL       0.138000E-01   1.00800           0
      5452 MEMB     40       OL       H13S     hL       0.138000E-01   1.00800           0
      5453 MEMB     40       OL       C114     cD      -0.248490E-01   12.0100           0
      5454 MEMB     40       OL       H14R     hL       0.857200E-02   1.00800           0
      5455 MEMB     40       OL       H14S     hL       0.857200E-02   1.00800           0
      5456 MEMB     40       OL       C115     cD      -0.232470E-01   12.0100           0
      5457 MEMB     40       OL       H15R     hL       0.104030E-01   1.00800           0
      5458 MEMB     40       OL       H15S     hL       0.104030E-01   1.00800           0
      5459 MEMB     40       OL       C116     cD      -0.124880E-01   12.0100           0
      5460 MEMB     40       OL       H16R     hL       0.136590E-01   1.00800           0
      5461 MEMB     40       OL       H16S     hL       0.136590E-01   1.00800           0
      5462 MEMB     40       OL       C117     cD       0.868400E-02   12.0100           0
      5463 MEMB     40       OL       H17R     hL       0.100260E-01   1.00800           0
      5464 MEMB     40       OL       H17S     hL       0.100260E-01   1.00800           0
      5465 MEMB     40       OL       C118     cD      -0.117290       12.0100           0
      5466 MEMB     40       OL       H18R     hL       0.266270E-01   1.00800           0
      5467 MEMB     40       OL       H18S     hL       0.266270E-01   1.00800           0
      5468 MEMB     40       OL       H18T     hL       0.266270E-01   1.00800           0
      5469 MEMB     41       PA       C116     cD      -0.125447       12.0100           0
      5470 MEMB     41       PA       H16R     hL       0.290470E-01   1.00800           0
      5471 MEMB     41       PA       H16S     hL       0.290470E-01   1.00800           0
      5472 MEMB     41       PA       H16T     hL       0.290470E-01   1.00800           0
      5473 MEMB     41       PA       C115     cD       0.139750E-01   12.0100           0
      5474 MEMB     41       PA       H15R     hL       0.929200E-02   1.00800           0
      5475 MEMB     41       PA       H15S     hL       0.929200E-02   1.00800           0
      5476 MEMB     41       PA       C114     cD      -0.200860E-01   12.0100           0
      5477 MEMB     41       PA       H14R     hL       0.159290E-01   1.00800           0
      5478 MEMB     41       PA       H14S     hL       0.159290E-01   1.00800           0
      5479 MEMB     41       PA       C113     cD      -0.330960E-01   12.0100           0
      5480 MEMB     41       PA       H13R     hL       0.146210E-01   1.00800           0
      5481 MEMB     41       PA       H13S     hL       0.146210E-01   1.00800           0
      5482 MEMB     41       PA       C112     cD      -0.276330E-01   12.0100           0
      5483 MEMB     41       PA       H12R     hL       0.113680E-01   1.00800           0
      5484 MEMB     41       PA       H12S     hL       0.113680E-01   1.00800           0
      5485 MEMB     41       PA       C111     cD      -0.252060E-01   12.0100           0
      5486 MEMB     41       PA       H11R     hL       0.143340E-01   1.00800           0
      5487 MEMB     41       PA       H11S     hL       0.143340E-01   1.00800           0
      5488 MEMB     41       PA       C110     cD      -0.288310E-01   12.0100           0
      5489 MEMB     41       PA       H10R     hL       0.146910E-01   1.00800           0
      5490 MEMB     41       PA       H10S     hL       0.146910E-01   1.00800           0
      5491 MEMB     41       PA       C19      cD      -0.304720E-01   12.0100           0
      5492 MEMB     41       PA       H9R      hL       0.138970E-01   1.00800           0
      5493 MEMB     41       PA       H9S      hL       0.138970E-01   1.00800           0
      5494 MEMB     41       PA       C18      cD      -0.157930E-01   12.0100           0
      5495 MEMB     41       PA       H8R      hL       0.906700E-02   1.00800           0
      5496 MEMB     41       PA       H8S      hL       0.906700E-02   1.00800           0
      5497 MEMB     41       PA       C17      cD      -0.196300E-01   12.0100           0
      5498 MEMB     41       PA       H7R      hL       0.110410E-01   1.00800           0
      5499 MEMB     41       PA       H7S      hL       0.110410E-01   1.00800           0
      5500 MEMB     41       PA       C16      cD      -0.244270E-01   12.0100           0
      5501 MEMB     41       PA       H6R      hL       0.133340E-01   1.00800           0
      5502 MEMB     41       PA       H6S      hL       0.133340E-01   1.00800           0
      5503 MEMB     41       PA       C15      cD      -0.293870E-01   12.0100           0
      5504 MEMB     41       PA       H5R      hL       0.167630E-01   1.00800           0
      5505 MEMB     41       PA       H5S      hL       0.167630E-01   1.00800           0
      5506 MEMB     41       PA       C14      cD      -0.300990E-01   12.0100           0
      5507 MEMB     41       PA       H4R      hL       0.208770E-01   1.00800           0
      5508 MEMB     41       PA       H4S      hL       0.208770E-01   1.00800           0
      5509 MEMB     41       PA       C13      cD      -0.488200E-02   12.0100           0
      5510 MEMB     41       PA       H3R      hL       0.190070E-01   1.00800           0
      5511 MEMB     41       PA       H3S      hL       0.190070E-01   1.00800           0
      5512 MEMB     41       PA       C12      cD      -0.149259       12.0100           0
      5513 MEMB     41       PA       H2R      hL       0.473450E-01   1.00800           0
      5514 MEMB     41       PA       H2S      hL       0.473450E-01   1.00800           0
      5515 MEMB     41       PC       C11      cC       0.910403       12.0100           0
      5516 MEMB     41       PC       O12      oC      -0.671566       16.0000           0
      5517 MEMB     41       PC       O11      oS      -0.575489       16.0000           0
      5518 MEMB     41       PC       C1       cA       0.196939       12.0100           0
      5519 MEMB     41       PC       HR       hE       0.704690E-01   1.00800           0
      5520 MEMB     41       PC       HS       hE       0.704690E-01   1.00800           0
      5521 MEMB     41       PC       C2       cA       0.281242       12.0100           0
      5522 MEMB     41       PC       HX       hE       0.632530E-01   1.00800           0
      5523 MEMB     41       PC       C3       cA       0.174590E-01   12.0100           0
      5524 MEMB     41       PC       HA       hE       0.955910E-01   1.00800           0
      5525 MEMB     41       PC       HB       hE       0.955910E-01   1.00800           0
      5526 MEMB     41       PC       O31      oT      -0.509480       16.0000           0
      5527 MEMB     41       PC       P31      pA       1.339721       30.9700           0
      5528 MEMB     41       PC       O32      oT      -0.508176       16.0000           0
      5529 MEMB     41       PC       C31      cA       0.166801       12.0100           0
      5530 MEMB     41       PC       H1A      hE       0.785340E-01   1.00800           0
      5531 MEMB     41       PC       H1B      hE       0.785340E-01   1.00800           0
      5532 MEMB     41       PC       C32      cA      -0.170824       12.0100           0
      5533 MEMB     41       PC       H2A      hX       0.136415       1.00800           0
      5534 MEMB     41       PC       H2B      hX       0.136415       1.00800           0
      5535 MEMB     41       PC       N31      nA       0.245262       14.0100           0
      5536 MEMB     41       PC       C33      cA      -0.338973       12.0100           0
      5537 MEMB     41       PC       H3A      hX       0.172230       1.00800           0
      5538 MEMB     41       PC       H3B      hX       0.172230       1.00800           0
      5539 MEMB     41       PC       H3C      hX       0.172230       1.00800           0
      5540 MEMB     41       PC       C34      cA      -0.338973       12.0100           0
      5541 MEMB     41       PC       H4A      hX       0.172230       1.00800           0
      5542 MEMB     41       PC       H4B      hX       0.172230       1.00800           0
      5543 MEMB     41       PC       H4C      hX       0.172230       1.00800           0
      5544 MEMB     41       PC       C35      cA      -0.338973       12.0100           0
      5545 MEMB     41       PC       H5A      hX       0.172230       1.00800           0
      5546 MEMB     41       PC       H5B      hX       0.172230       1.00800           0
      5547 MEMB     41       PC       H5C      hX       0.172230       1.00800           0
      5548 MEMB     41       PC       O33      oP      -0.875812       16.0000           0
      5549 MEMB     41       PC       O34      oP      -0.875812       16.0000           0
      5550 MEMB     41       PC       O21      oS      -0.552948       16.0000           0
      5551 MEMB     41       PC       C21      cC       0.897613       12.0100           0
      5552 MEMB     41       PC       O22      oC      -0.673755       16.0000           0
      5553 MEMB     41       OL       C12      cD      -0.143418       12.0100           0
      5554 MEMB     41       OL       H2R      hL       0.428610E-01   1.00800           0
      5555 MEMB     41       OL       H2S      hL       0.428610E-01   1.00800           0
      5556 MEMB     41       OL       C13      cD       0.161900E-02   12.0100           0
      5557 MEMB     41       OL       H3R      hL       0.195290E-01   1.00800           0
      5558 MEMB     41       OL       H3S      hL       0.195290E-01   1.00800           0
      5559 MEMB     41       OL       C14      cD      -0.229600E-01   12.0100           0
      5560 MEMB     41       OL       H4R      hL       0.181340E-01   1.00800           0
      5561 MEMB     41       OL       H4S      hL       0.181340E-01   1.00800           0
      5562 MEMB     41       OL       C15      cD      -0.166920E-01   12.0100           0
      5563 MEMB     41       OL       H5R      hL       0.869000E-02   1.00800           0
      5564 MEMB     41       OL       H5S      hL       0.869000E-02   1.00800           0
      5565 MEMB     41       OL       C16      cD      -0.237890E-01   12.0100           0
      5566 MEMB     41       OL       H6R      hL       0.926600E-02   1.00800           0
      5567 MEMB     41       OL       H6S      hL       0.926600E-02   1.00800           0
      5568 MEMB     41       OL       C17      cD      -0.174950E-01   12.0100           0
      5569 MEMB     41       OL       H7R      hL       0.195980E-01   1.00800           0
      5570 MEMB     41       OL       H7S      hL       0.195980E-01   1.00800           0
      5571 MEMB     41       OL       C18      cD       0.317750E-01   12.0100           0
      5572 MEMB     41       OL       H8R      hL       0.326850E-01   1.00800           0
      5573 MEMB     41       OL       H8S      hL       0.326850E-01   1.00800           0
      5574 MEMB     41       OL       C19      cB      -0.244228       12.0100           0
      5575 MEMB     41       OL       H9R      hB       0.131512       1.00800           0
      5576 MEMB     41       OL       C110     cB      -0.239284       12.0100           0
      5577 MEMB     41       OL       H10R     hB       0.126878       1.00800           0
      5578 MEMB     41       OL       C111     cD       0.290590E-01   12.0100           0
      5579 MEMB     41       OL       H11R     hL       0.335310E-01   1.00800           0
      5580 MEMB     41       OL       H11S     hL       0.335310E-01   1.00800           0
      5581 MEMB     41       OL       C112     cD      -0.263530E-01   12.0100           0
      5582 MEMB     41       OL       H12R     hL       0.197170E-01   1.00800           0
      5583 MEMB     41       OL       H12S     hL       0.197170E-01   1.00800           0
      5584 MEMB     41       OL       C113     cD      -0.182570E-01   12.0100           0
      5585 MEMB     41       OL       H13R     hL       0.138000E-01   1.00800           0
      5586 MEMB     41       OL       H13S     hL       0.138000E-01   1.00800           0
      5587 MEMB     41       OL       C114     cD      -0.248490E-01   12.0100           0
      5588 MEMB     41       OL       H14R     hL       0.857200E-02   1.00800           0
      5589 MEMB     41       OL       H14S     hL       0.857200E-02   1.00800           0
      5590 MEMB     41       OL       C115     cD      -0.232470E-01   12.0100           0
      5591 MEMB     41       OL       H15R     hL       0.104030E-01   1.00800           0
      5592 MEMB     41       OL       H15S     hL       0.104030E-01   1.00800           0
      5593 MEMB     41       OL       C116     cD      -0.124880E-01   12.0100           0
      5594 MEMB     41       OL       H16R     hL       0.136590E-01   1.00800           0
      5595 MEMB     41       OL       H16S     hL       0.136590E-01   1.00800           0
      5596 MEMB     41       OL       C117     cD       0.868400E-02   12.0100           0
      5597 MEMB     41       OL       H17R     hL       0.100260E-01   1.00800           0
      5598 MEMB     41       OL       H17S     hL       0.100260E-01   1.00800           0
      5599 MEMB     41       OL       C118     cD      -0.117290       12.0100           0
      5600 MEMB     41       OL       H18R     hL       0.266270E-01   1.00800           0
      5601 MEMB     41       OL       H18S     hL       0.266270E-01   1.00800           0
      5602 MEMB     41       OL       H18T     hL       0.266270E-01   1.00800           0
      5603 MEMB     42       PA       C116     cD      -0.125447       12.0100           0
      5604 MEMB     42       PA       H16R     hL       0.290470E-01   1.00800           0
      5605 MEMB     42       PA       H16S     hL       0.290470E-01   1.00800           0
      5606 MEMB     42       PA       H16T     hL       0.290470E-01   1.00800           0
      5607 MEMB     42       PA       C115     cD       0.139750E-01   12.0100           0
      5608 MEMB     42       PA       H15R     hL       0.929200E-02   1.00800           0
      5609 MEMB     42       PA       H15S     hL       0.929200E-02   1.00800           0
      5610 MEMB     42       PA       C114     cD      -0.200860E-01   12.0100           0
      5611 MEMB     42       PA       H14R     hL       0.159290E-01   1.00800           0
      5612 MEMB     42       PA       H14S     hL       0.159290E-01   1.00800           0
      5613 MEMB     42       PA       C113     cD      -0.330960E-01   12.0100           0
      5614 MEMB     42       PA       H13R     hL       0.146210E-01   1.00800           0
      5615 MEMB     42       PA       H13S     hL       0.146210E-01   1.00800           0
      5616 MEMB     42       PA       C112     cD      -0.276330E-01   12.0100           0
      5617 MEMB     42       PA       H12R     hL       0.113680E-01   1.00800           0
      5618 MEMB     42       PA       H12S     hL       0.113680E-01   1.00800           0
      5619 MEMB     42       PA       C111     cD      -0.252060E-01   12.0100           0
      5620 MEMB     42       PA       H11R     hL       0.143340E-01   1.00800           0
      5621 MEMB     42       PA       H11S     hL       0.143340E-01   1.00800           0
      5622 MEMB     42       PA       C110     cD      -0.288310E-01   12.0100           0
      5623 MEMB     42       PA       H10R     hL       0.146910E-01   1.00800           0
      5624 MEMB     42       PA       H10S     hL       0.146910E-01   1.00800           0
      5625 MEMB     42       PA       C19      cD      -0.304720E-01   12.0100           0
      5626 MEMB     42       PA       H9R      hL       0.138970E-01   1.00800           0
      5627 MEMB     42       PA       H9S      hL       0.138970E-01   1.00800           0
      5628 MEMB     42       PA       C18      cD      -0.157930E-01   12.0100           0
      5629 MEMB     42       PA       H8R      hL       0.906700E-02   1.00800           0
      5630 MEMB     42       PA       H8S      hL       0.906700E-02   1.00800           0
      5631 MEMB     42       PA       C17      cD      -0.196300E-01   12.0100           0
      5632 MEMB     42       PA       H7R      hL       0.110410E-01   1.00800           0
      5633 MEMB     42       PA       H7S      hL       0.110410E-01   1.00800           0
      5634 MEMB     42       PA       C16      cD      -0.244270E-01   12.0100           0
      5635 MEMB     42       PA       H6R      hL       0.133340E-01   1.00800           0
      5636 MEMB     42       PA       H6S      hL       0.133340E-01   1.00800           0
      5637 MEMB     42       PA       C15      cD      -0.293870E-01   12.0100           0
      5638 MEMB     42       PA       H5R      hL       0.167630E-01   1.00800           0
      5639 MEMB     42       PA       H5S      hL       0.167630E-01   1.00800           0
      5640 MEMB     42       PA       C14      cD      -0.300990E-01   12.0100           0
      5641 MEMB     42       PA       H4R      hL       0.208770E-01   1.00800           0
      5642 MEMB     42       PA       H4S      hL       0.208770E-01   1.00800           0
      5643 MEMB     42       PA       C13      cD      -0.488200E-02   12.0100           0
      5644 MEMB     42       PA       H3R      hL       0.190070E-01   1.00800           0
      5645 MEMB     42       PA       H3S      hL       0.190070E-01   1.00800           0
      5646 MEMB     42       PA       C12      cD      -0.149259       12.0100           0
      5647 MEMB     42       PA       H2R      hL       0.473450E-01   1.00800           0
      5648 MEMB     42       PA       H2S      hL       0.473450E-01   1.00800           0
      5649 MEMB     42       PC       C11      cC       0.910403       12.0100           0
      5650 MEMB     42       PC       O12      oC      -0.671566       16.0000           0
      5651 MEMB     42       PC       O11      oS      -0.575489       16.0000           0
      5652 MEMB     42       PC       C1       cA       0.196939       12.0100           0
      5653 MEMB     42       PC       HR       hE       0.704690E-01   1.00800           0
      5654 MEMB     42       PC       HS       hE       0.704690E-01   1.00800           0
      5655 MEMB     42       PC       C2       cA       0.281242       12.0100           0
      5656 MEMB     42       PC       HX       hE       0.632530E-01   1.00800           0
      5657 MEMB     42       PC       C3       cA       0.174590E-01   12.0100           0
      5658 MEMB     42       PC       HA       hE       0.955910E-01   1.00800           0
      5659 MEMB     42       PC       HB       hE       0.955910E-01   1.00800           0
      5660 MEMB     42       PC       O31      oT      -0.509480       16.0000           0
      5661 MEMB     42       PC       P31      pA       1.339721       30.9700           0
      5662 MEMB     42       PC       O32      oT      -0.508176       16.0000           0
      5663 MEMB     42       PC       C31      cA       0.166801       12.0100           0
      5664 MEMB     42       PC       H1A      hE       0.785340E-01   1.00800           0
      5665 MEMB     42       PC       H1B      hE       0.785340E-01   1.00800           0
      5666 MEMB     42       PC       C32      cA      -0.170824       12.0100           0
      5667 MEMB     42       PC       H2A      hX       0.136415       1.00800           0
      5668 MEMB     42       PC       H2B      hX       0.136415       1.00800           0
      5669 MEMB     42       PC       N31      nA       0.245262       14.0100           0
      5670 MEMB     42       PC       C33      cA      -0.338973       12.0100           0
      5671 MEMB     42       PC       H3A      hX       0.172230       1.00800           0
      5672 MEMB     42       PC       H3B      hX       0.172230       1.00800           0
      5673 MEMB     42       PC       H3C      hX       0.172230       1.00800           0
      5674 MEMB     42       PC       C34      cA      -0.338973       12.0100           0
      5675 MEMB     42       PC       H4A      hX       0.172230       1.00800           0
      5676 MEMB     42       PC       H4B      hX       0.172230       1.00800           0
      5677 MEMB     42       PC       H4C      hX       0.172230       1.00800           0
      5678 MEMB     42       PC       C35      cA      -0.338973       12.0100           0
      5679 MEMB     42       PC       H5A      hX       0.172230       1.00800           0
      5680 MEMB     42       PC       H5B      hX       0.172230       1.00800           0
      5681 MEMB     42       PC       H5C      hX       0.172230       1.00800           0
      5682 MEMB     42       PC       O33      oP      -0.875812       16.0000           0
      5683 MEMB     42       PC       O34      oP      -0.875812       16.0000           0
      5684 MEMB     42       PC       O21      oS      -0.552948       16.0000           0
      5685 MEMB     42       PC       C21      cC       0.897613       12.0100           0
      5686 MEMB     42       PC       O22      oC      -0.673755       16.0000           0
      5687 MEMB     42       OL       C12      cD      -0.143418       12.0100           0
      5688 MEMB     42       OL       H2R      hL       0.428610E-01   1.00800           0
      5689 MEMB     42       OL       H2S      hL       0.428610E-01   1.00800           0
      5690 MEMB     42       OL       C13      cD       0.161900E-02   12.0100           0
      5691 MEMB     42       OL       H3R      hL       0.195290E-01   1.00800           0
      5692 MEMB     42       OL       H3S      hL       0.195290E-01   1.00800           0
      5693 MEMB     42       OL       C14      cD      -0.229600E-01   12.0100           0
      5694 MEMB     42       OL       H4R      hL       0.181340E-01   1.00800           0
      5695 MEMB     42       OL       H4S      hL       0.181340E-01   1.00800           0
      5696 MEMB     42       OL       C15      cD      -0.166920E-01   12.0100           0
      5697 MEMB     42       OL       H5R      hL       0.869000E-02   1.00800           0
      5698 MEMB     42       OL       H5S      hL       0.869000E-02   1.00800           0
      5699 MEMB     42       OL       C16      cD      -0.237890E-01   12.0100           0
      5700 MEMB     42       OL       H6R      hL       0.926600E-02   1.00800           0
      5701 MEMB     42       OL       H6S      hL       0.926600E-02   1.00800           0
      5702 MEMB     42       OL       C17      cD      -0.174950E-01   12.0100           0
      5703 MEMB     42       OL       H7R      hL       0.195980E-01   1.00800           0
      5704 MEMB     42       OL       H7S      hL       0.195980E-01   1.00800           0
      5705 MEMB     42       OL       C18      cD       0.317750E-01   12.0100           0
      5706 MEMB     42       OL       H8R      hL       0.326850E-01   1.00800           0
      5707 MEMB     42       OL       H8S      hL       0.326850E-01   1.00800           0
      5708 MEMB     42       OL       C19      cB      -0.244228       12.0100           0
      5709 MEMB     42       OL       H9R      hB       0.131512       1.00800           0
      5710 MEMB     42       OL       C110     cB      -0.239284       12.0100           0
      5711 MEMB     42       OL       H10R     hB       0.126878       1.00800           0
      5712 MEMB     42       OL       C111     cD       0.290590E-01   12.0100           0
      5713 MEMB     42       OL       H11R     hL       0.335310E-01   1.00800           0
      5714 MEMB     42       OL       H11S     hL       0.335310E-01   1.00800           0
      5715 MEMB     42       OL       C112     cD      -0.263530E-01   12.0100           0
      5716 MEMB     42       OL       H12R     hL       0.197170E-01   1.00800           0
      5717 MEMB     42       OL       H12S     hL       0.197170E-01   1.00800           0
      5718 MEMB     42       OL       C113     cD      -0.182570E-01   12.0100           0
      5719 MEMB     42       OL       H13R     hL       0.138000E-01   1.00800           0
      5720 MEMB     42       OL       H13S     hL       0.138000E-01   1.00800           0
      5721 MEMB     42       OL       C114     cD      -0.248490E-01   12.0100           0
      5722 MEMB     42       OL       H14R     hL       0.857200E-02   1.00800           0
      5723 MEMB     42       OL       H14S     hL       0.857200E-02   1.00800           0
      5724 MEMB     42       OL       C115     cD      -0.232470E-01   12.0100           0
      5725 MEMB     42       OL       H15R     hL       0.104030E-01   1.00800           0
      5726 MEMB     42       OL       H15S     hL       0.104030E-01   1.00800           0
      5727 MEMB     42       OL       C116     cD      -0.124880E-01   12.0100           0
      5728 MEMB     42       OL       H16R     hL       0.136590E-01   1.00800           0
      5729 MEMB     42       OL       H16S     hL       0.136590E-01   1.00800           0
      5730 MEMB     42       OL       C117     cD       0.868400E-02   12.0100           0
      5731 MEMB     42       OL       H17R     hL       0.100260E-01   1.00800           0
      5732 MEMB     42       OL       H17S     hL       0.100260E-01   1.00800           0
      5733 MEMB     42       OL       C118     cD      -0.117290       12.0100           0
      5734 MEMB     42       OL       H18R     hL       0.266270E-01   1.00800           0
      5735 MEMB     42       OL       H18S     hL       0.266270E-01   1.00800           0
      5736 MEMB     42       OL       H18T     hL       0.266270E-01   1.00800           0
      5737 MEMB     43       PA       C116     cD      -0.125447       12.0100           0
      5738 MEMB     43       PA       H16R     hL       0.290470E-01   1.00800           0
      5739 MEMB     43       PA       H16S     hL       0.290470E-01   1.00800           0
      5740 MEMB     43       PA       H16T     hL       0.290470E-01   1.00800           0
      5741 MEMB     43       PA       C115     cD       0.139750E-01   12.0100           0
      5742 MEMB     43       PA       H15R     hL       0.929200E-02   1.00800           0
      5743 MEMB     43       PA       H15S     hL       0.929200E-02   1.00800           0
      5744 MEMB     43       PA       C114     cD      -0.200860E-01   12.0100           0
      5745 MEMB     43       PA       H14R     hL       0.159290E-01   1.00800           0
      5746 MEMB     43       PA       H14S     hL       0.159290E-01   1.00800           0
      5747 MEMB     43       PA       C113     cD      -0.330960E-01   12.0100           0
      5748 MEMB     43       PA       H13R     hL       0.146210E-01   1.00800           0
      5749 MEMB     43       PA       H13S     hL       0.146210E-01   1.00800           0
      5750 MEMB     43       PA       C112     cD      -0.276330E-01   12.0100           0
      5751 MEMB     43       PA       H12R     hL       0.113680E-01   1.00800           0
      5752 MEMB     43       PA       H12S     hL       0.113680E-01   1.00800           0
      5753 MEMB     43       PA       C111     cD      -0.252060E-01   12.0100           0
      5754 MEMB     43       PA       H11R     hL       0.143340E-01   1.00800           0
      5755 MEMB     43       PA       H11S     hL       0.143340E-01   1.00800           0
      5756 MEMB     43       PA       C110     cD      -0.288310E-01   12.0100           0
      5757 MEMB     43       PA       H10R     hL       0.146910E-01   1.00800           0
      5758 MEMB     43       PA       H10S     hL       0.146910E-01   1.00800           0
      5759 MEMB     43       PA       C19      cD      -0.304720E-01   12.0100           0
      5760 MEMB     43       PA       H9R      hL       0.138970E-01   1.00800           0
      5761 MEMB     43       PA       H9S      hL       0.138970E-01   1.00800           0
      5762 MEMB     43       PA       C18      cD      -0.157930E-01   12.0100           0
      5763 MEMB     43       PA       H8R      hL       0.906700E-02   1.00800           0
      5764 MEMB     43       PA       H8S      hL       0.906700E-02   1.00800           0
      5765 MEMB     43       PA       C17      cD      -0.196300E-01   12.0100           0
      5766 MEMB     43       PA       H7R      hL       0.110410E-01   1.00800           0
      5767 MEMB     43       PA       H7S      hL       0.110410E-01   1.00800           0
      5768 MEMB     43       PA       C16      cD      -0.244270E-01   12.0100           0
      5769 MEMB     43       PA       H6R      hL       0.133340E-01   1.00800           0
      5770 MEMB     43       PA       H6S      hL       0.133340E-01   1.00800           0
      5771 MEMB     43       PA       C15      cD      -0.293870E-01   12.0100           0
      5772 MEMB     43       PA       H5R      hL       0.167630E-01   1.00800           0
      5773 MEMB     43       PA       H5S      hL       0.167630E-01   1.00800           0
      5774 MEMB     43       PA       C14      cD      -0.300990E-01   12.0100           0
      5775 MEMB     43       PA       H4R      hL       0.208770E-01   1.00800           0
      5776 MEMB     43       PA       H4S      hL       0.208770E-01   1.00800           0
      5777 MEMB     43       PA       C13      cD      -0.488200E-02   12.0100           0
      5778 MEMB     43       PA       H3R      hL       0.190070E-01   1.00800           0
      5779 MEMB     43       PA       H3S      hL       0.190070E-01   1.00800           0
      5780 MEMB     43       PA       C12      cD      -0.149259       12.0100           0
      5781 MEMB     43       PA       H2R      hL       0.473450E-01   1.00800           0
      5782 MEMB     43       PA       H2S      hL       0.473450E-01   1.00800           0
      5783 MEMB     43       PC       C11      cC       0.910403       12.0100           0
      5784 MEMB     43       PC       O12      oC      -0.671566       16.0000           0
      5785 MEMB     43       PC       O11      oS      -0.575489       16.0000           0
      5786 MEMB     43       PC       C1       cA       0.196939       12.0100           0
      5787 MEMB     43       PC       HR       hE       0.704690E-01   1.00800           0
      5788 MEMB     43       PC       HS       hE       0.704690E-01   1.00800           0
      5789 MEMB     43       PC       C2       cA       0.281242       12.0100           0
      5790 MEMB     43       PC       HX       hE       0.632530E-01   1.00800           0
      5791 MEMB     43       PC       C3       cA       0.174590E-01   12.0100           0
      5792 MEMB     43       PC       HA       hE       0.955910E-01   1.00800           0
      5793 MEMB     43       PC       HB       hE       0.955910E-01   1.00800           0
      5794 MEMB     43       PC       O31      oT      -0.509480       16.0000           0
      5795 MEMB     43       PC       P31      pA       1.339721       30.9700           0
      5796 MEMB     43       PC       O32      oT      -0.508176       16.0000           0
      5797 MEMB     43       PC       C31      cA       0.166801       12.0100           0
      5798 MEMB     43       PC       H1A      hE       0.785340E-01   1.00800           0
      5799 MEMB     43       PC       H1B      hE       0.785340E-01   1.00800           0
      5800 MEMB     43       PC       C32      cA      -0.170824       12.0100           0
      5801 MEMB     43       PC       H2A      hX       0.136415       1.00800           0
      5802 MEMB     43       PC       H2B      hX       0.136415       1.00800           0
      5803 MEMB     43       PC       N31      nA       0.245262       14.0100           0
      5804 MEMB     43       PC       C33      cA      -0.338973       12.0100           0
      5805 MEMB     43       PC       H3A      hX       0.172230       1.00800           0
      5806 MEMB     43       PC       H3B      hX       0.172230       1.00800           0
      5807 MEMB     43       PC       H3C      hX       0.172230       1.00800           0
      5808 MEMB     43       PC       C34      cA      -0.338973       12.0100           0
      5809 MEMB     43       PC       H4A      hX       0.172230       1.00800           0
      5810 MEMB     43       PC       H4B      hX       0.172230       1.00800           0
      5811 MEMB     43       PC       H4C      hX       0.172230       1.00800           0
      5812 MEMB     43       PC       C35      cA      -0.338973       12.0100           0
      5813 MEMB     43       PC       H5A      hX       0.172230       1.00800           0
      5814 MEMB     43       PC       H5B      hX       0.172230       1.00800           0
      5815 MEMB     43       PC       H5C      hX       0.172230       1.00800           0
      5816 MEMB     43       PC       O33      oP      -0.875812       16.0000           0
      5817 MEMB     43       PC       O34      oP      -0.875812       16.0000           0
      5818 MEMB     43       PC       O21      oS      -0.552948       16.0000           0
      5819 MEMB     43       PC       C21      cC       0.897613       12.0100           0
      5820 MEMB     43       PC       O22      oC      -0.673755       16.0000           0
      5821 MEMB     43       OL       C12      cD      -0.143418       12.0100           0
      5822 MEMB     43       OL       H2R      hL       0.428610E-01   1.00800           0
      5823 MEMB     43       OL       H2S      hL       0.428610E-01   1.00800           0
      5824 MEMB     43       OL       C13      cD       0.161900E-02   12.0100           0
      5825 MEMB     43       OL       H3R      hL       0.195290E-01   1.00800           0
      5826 MEMB     43       OL       H3S      hL       0.195290E-01   1.00800           0
      5827 MEMB     43       OL       C14      cD      -0.229600E-01   12.0100           0
      5828 MEMB     43       OL       H4R      hL       0.181340E-01   1.00800           0
      5829 MEMB     43       OL       H4S      hL       0.181340E-01   1.00800           0
      5830 MEMB     43       OL       C15      cD      -0.166920E-01   12.0100           0
      5831 MEMB     43       OL       H5R      hL       0.869000E-02   1.00800           0
      5832 MEMB     43       OL       H5S      hL       0.869000E-02   1.00800           0
      5833 MEMB     43       OL       C16      cD      -0.237890E-01   12.0100           0
      5834 MEMB     43       OL       H6R      hL       0.926600E-02   1.00800           0
      5835 MEMB     43       OL       H6S      hL       0.926600E-02   1.00800           0
      5836 MEMB     43       OL       C17      cD      -0.174950E-01   12.0100           0
      5837 MEMB     43       OL       H7R      hL       0.195980E-01   1.00800           0
      5838 MEMB     43       OL       H7S      hL       0.195980E-01   1.00800           0
      5839 MEMB     43       OL       C18      cD       0.317750E-01   12.0100           0
      5840 MEMB     43       OL       H8R      hL       0.326850E-01   1.00800           0
      5841 MEMB     43       OL       H8S      hL       0.326850E-01   1.00800           0
      5842 MEMB     43       OL       C19      cB      -0.244228       12.0100           0
      5843 MEMB     43       OL       H9R      hB       0.131512       1.00800           0
      5844 MEMB     43       OL       C110     cB      -0.239284       12.0100           0
      5845 MEMB     43       OL       H10R     hB       0.126878       1.00800           0
      5846 MEMB     43       OL       C111     cD       0.290590E-01   12.0100           0
      5847 MEMB     43       OL       H11R     hL       0.335310E-01   1.00800           0
      5848 MEMB     43       OL       H11S     hL       0.335310E-01   1.00800           0
      5849 MEMB     43       OL       C112     cD      -0.263530E-01   12.0100           0
      5850 MEMB     43       OL       H12R     hL       0.197170E-01   1.00800           0
      5851 MEMB     43       OL       H12S     hL       0.197170E-01   1.00800           0
      5852 MEMB     43       OL       C113     cD      -0.182570E-01   12.0100           0
      5853 MEMB     43       OL       H13R     hL       0.138000E-01   1.00800           0
      5854 MEMB     43       OL       H13S     hL       0.138000E-01   1.00800           0
      5855 MEMB     43       OL       C114     cD      -0.248490E-01   12.0100           0
      5856 MEMB     43       OL       H14R     hL       0.857200E-02   1.00800           0
      5857 MEMB     43       OL       H14S     hL       0.857200E-02   1.00800           0
      5858 MEMB     43       OL       C115     cD      -0.232470E-01   12.0100           0
      5859 MEMB     43       OL       H15R     hL       0.104030E-01   1.00800           0
      5860 MEMB     43       OL       H15S     hL       0.104030E-01   1.00800           0
      5861 MEMB     43       OL       C116     cD      -0.124880E-01   12.0100           0
      5862 MEMB     43       OL       H16R     hL       0.136590E-01   1.00800           0
      5863 MEMB     43       OL       H16S     hL       0.136590E-01   1.00800           0
      5864 MEMB     43       OL       C117     cD       0.868400E-02   12.0100           0
      5865 MEMB     43       OL       H17R     hL       0.100260E-01   1.00800           0
      5866 MEMB     43       OL       H17S     hL       0.100260E-01   1.00800           0
      5867 MEMB     43       OL       C118     cD      -0.117290       12.0100           0
      5868 MEMB     43       OL       H18R     hL       0.266270E-01   1.00800           0
      5869 MEMB     43       OL       H18S     hL       0.266270E-01   1.00800           0
      5870 MEMB     43       OL       H18T     hL       0.266270E-01   1.00800           0
      5871 MEMB     44       PA       C116     cD      -0.125447       12.0100           0
      5872 MEMB     44       PA       H16R     hL       0.290470E-01   1.00800           0
      5873 MEMB     44       PA       H16S     hL       0.290470E-01   1.00800           0
      5874 MEMB     44       PA       H16T     hL       0.290470E-01   1.00800           0
      5875 MEMB     44       PA       C115     cD       0.139750E-01   12.0100           0
      5876 MEMB     44       PA       H15R     hL       0.929200E-02   1.00800           0
      5877 MEMB     44       PA       H15S     hL       0.929200E-02   1.00800           0
      5878 MEMB     44       PA       C114     cD      -0.200860E-01   12.0100           0
      5879 MEMB     44       PA       H14R     hL       0.159290E-01   1.00800           0
      5880 MEMB     44       PA       H14S     hL       0.159290E-01   1.00800           0
      5881 MEMB     44       PA       C113     cD      -0.330960E-01   12.0100           0
      5882 MEMB     44       PA       H13R     hL       0.146210E-01   1.00800           0
      5883 MEMB     44       PA       H13S     hL       0.146210E-01   1.00800           0
      5884 MEMB     44       PA       C112     cD      -0.276330E-01   12.0100           0
      5885 MEMB     44       PA       H12R     hL       0.113680E-01   1.00800           0
      5886 MEMB     44       PA       H12S     hL       0.113680E-01   1.00800           0
      5887 MEMB     44       PA       C111     cD      -0.252060E-01   12.0100           0
      5888 MEMB     44       PA       H11R     hL       0.143340E-01   1.00800           0
      5889 MEMB     44       PA       H11S     hL       0.143340E-01   1.00800           0
      5890 MEMB     44       PA       C110     cD      -0.288310E-01   12.0100           0
      5891 MEMB     44       PA       H10R     hL       0.146910E-01   1.00800           0
      5892 MEMB     44       PA       H10S     hL       0.146910E-01   1.00800           0
      5893 MEMB     44       PA       C19      cD      -0.304720E-01   12.0100           0
      5894 MEMB     44       PA       H9R      hL       0.138970E-01   1.00800           0
      5895 MEMB     44       PA       H9S      hL       0.138970E-01   1.00800           0
      5896 MEMB     44       PA       C18      cD      -0.157930E-01   12.0100           0
      5897 MEMB     44       PA       H8R      hL       0.906700E-02   1.00800           0
      5898 MEMB     44       PA       H8S      hL       0.906700E-02   1.00800           0
      5899 MEMB     44       PA       C17      cD      -0.196300E-01   12.0100           0
      5900 MEMB     44       PA       H7R      hL       0.110410E-01   1.00800           0
      5901 MEMB     44       PA       H7S      hL       0.110410E-01   1.00800           0
      5902 MEMB     44       PA       C16      cD      -0.244270E-01   12.0100           0
      5903 MEMB     44       PA       H6R      hL       0.133340E-01   1.00800           0
      5904 MEMB     44       PA       H6S      hL       0.133340E-01   1.00800           0
      5905 MEMB     44       PA       C15      cD      -0.293870E-01   12.0100           0
      5906 MEMB     44       PA       H5R      hL       0.167630E-01   1.00800           0
      5907 MEMB     44       PA       H5S      hL       0.167630E-01   1.00800           0
      5908 MEMB     44       PA       C14      cD      -0.300990E-01   12.0100           0
      5909 MEMB     44       PA       H4R      hL       0.208770E-01   1.00800           0
      5910 MEMB     44       PA       H4S      hL       0.208770E-01   1.00800           0
      5911 MEMB     44       PA       C13      cD      -0.488200E-02   12.0100           0
      5912 MEMB     44       PA       H3R      hL       0.190070E-01   1.00800           0
      5913 MEMB     44       PA       H3S      hL       0.190070E-01   1.00800           0
      5914 MEMB     44       PA       C12      cD      -0.149259       12.0100           0
      5915 MEMB     44       PA       H2R      hL       0.473450E-01   1.00800           0
      5916 MEMB     44       PA       H2S      hL       0.473450E-01   1.00800           0
      5917 MEMB     44       PC       C11      cC       0.910403       12.0100           0
      5918 MEMB     44       PC       O12      oC      -0.671566       16.0000           0
      5919 MEMB     44       PC       O11      oS      -0.575489       16.0000           0
      5920 MEMB     44       PC       C1       cA       0.196939       12.0100           0
      5921 MEMB     44       PC       HR       hE       0.704690E-01   1.00800           0
      5922 MEMB     44       PC       HS       hE       0.704690E-01   1.00800           0
      5923 MEMB     44       PC       C2       cA       0.281242       12.0100           0
      5924 MEMB     44       PC       HX       hE       0.632530E-01   1.00800           0
      5925 MEMB     44       PC       C3       cA       0.174590E-01   12.0100           0
      5926 MEMB     44       PC       HA       hE       0.955910E-01   1.00800           0
      5927 MEMB     44       PC       HB       hE       0.955910E-01   1.00800           0
      5928 MEMB     44       PC       O31      oT      -0.509480       16.0000           0
      5929 MEMB     44       PC       P31      pA       1.339721       30.9700           0
      5930 MEMB     44       PC       O32      oT      -0.508176       16.0000           0
      5931 MEMB     44       PC       C31      cA       0.166801       12.0100           0
      5932 MEMB     44       PC       H1A      hE       0.785340E-01   1.00800           0
      5933 MEMB     44       PC       H1B      hE       0.785340E-01   1.00800           0
      5934 MEMB     44       PC       C32      cA      -0.170824       12.0100           0
      5935 MEMB     44       PC       H2A      hX       0.136415       1.00800           0
      5936 MEMB     44       PC       H2B      hX       0.136415       1.00800           0
      5937 MEMB     44       PC       N31      nA       0.245262       14.0100           0
      5938 MEMB     44       PC       C33      cA      -0.338973       12.0100           0
      5939 MEMB     44       PC       H3A      hX       0.172230       1.00800           0
      5940 MEMB     44       PC       H3B      hX       0.172230       1.00800           0
      5941 MEMB     44       PC       H3C      hX       0.172230       1.00800           0
      5942 MEMB     44       PC       C34      cA      -0.338973       12.0100           0
      5943 MEMB     44       PC       H4A      hX       0.172230       1.00800           0
      5944 MEMB     44       PC       H4B      hX       0.172230       1.00800           0
      5945 MEMB     44       PC       H4C      hX       0.172230       1.00800           0
      5946 MEMB     44       PC       C35      cA      -0.338973       12.0100           0
      5947 MEMB     44       PC       H5A      hX       0.172230       1.00800           0
      5948 MEMB     44       PC       H5B      hX       0.172230       1.00800           0
      5949 MEMB     44       PC       H5C      hX       0.172230       1.00800           0
      5950 MEMB     44       PC       O33      oP      -0.875812       16.0000           0
      5951 MEMB     44       PC       O34      oP      -0.875812       16.0000           0
      5952 MEMB     44       PC       O21      oS      -0.552948       16.0000           0
      5953 MEMB     44       PC       C21      cC       0.897613       12.0100           0
      5954 MEMB     44       PC       O22      oC      -0.673755       16.0000           0
      5955 MEMB     44       OL       C12      cD      -0.143418       12.0100           0
      5956 MEMB     44       OL       H2R      hL       0.428610E-01   1.00800           0
      5957 MEMB     44       OL       H2S      hL       0.428610E-01   1.00800           0
      5958 MEMB     44       OL       C13      cD       0.161900E-02   12.0100           0
      5959 MEMB     44       OL       H3R      hL       0.195290E-01   1.00800           0
      5960 MEMB     44       OL       H3S      hL       0.195290E-01   1.00800           0
      5961 MEMB     44       OL       C14      cD      -0.229600E-01   12.0100           0
      5962 MEMB     44       OL       H4R      hL       0.181340E-01   1.00800           0
      5963 MEMB     44       OL       H4S      hL       0.181340E-01   1.00800           0
      5964 MEMB     44       OL       C15      cD      -0.166920E-01   12.0100           0
      5965 MEMB     44       OL       H5R      hL       0.869000E-02   1.00800           0
      5966 MEMB     44       OL       H5S      hL       0.869000E-02   1.00800           0
      5967 MEMB     44       OL       C16      cD      -0.237890E-01   12.0100           0
      5968 MEMB     44       OL       H6R      hL       0.926600E-02   1.00800           0
      5969 MEMB     44       OL       H6S      hL       0.926600E-02   1.00800           0
      5970 MEMB     44       OL       C17      cD      -0.174950E-01   12.0100           0
      5971 MEMB     44       OL       H7R      hL       0.195980E-01   1.00800           0
      5972 MEMB     44       OL       H7S      hL       0.195980E-01   1.00800           0
      5973 MEMB     44       OL       C18      cD       0.317750E-01   12.0100           0
      5974 MEMB     44       OL       H8R      hL       0.326850E-01   1.00800           0
      5975 MEMB     44       OL       H8S      hL       0.326850E-01   1.00800           0
      5976 MEMB     44       OL       C19      cB      -0.244228       12.0100           0
      5977 MEMB     44       OL       H9R      hB       0.131512       1.00800           0
      5978 MEMB     44       OL       C110     cB      -0.239284       12.0100           0
      5979 MEMB     44       OL       H10R     hB       0.126878       1.00800           0
      5980 MEMB     44       OL       C111     cD       0.290590E-01   12.0100           0
      5981 MEMB     44       OL       H11R     hL       0.335310E-01   1.00800           0
      5982 MEMB     44       OL       H11S     hL       0.335310E-01   1.00800           0
      5983 MEMB     44       OL       C112     cD      -0.263530E-01   12.0100           0
      5984 MEMB     44       OL       H12R     hL       0.197170E-01   1.00800           0
      5985 MEMB     44       OL       H12S     hL       0.197170E-01   1.00800           0
      5986 MEMB     44       OL       C113     cD      -0.182570E-01   12.0100           0
      5987 MEMB     44       OL       H13R     hL       0.138000E-01   1.00800           0
      5988 MEMB     44       OL       H13S     hL       0.138000E-01   1.00800           0
      5989 MEMB     44       OL       C114     cD      -0.248490E-01   12.0100           0
      5990 MEMB     44       OL       H14R     hL       0.857200E-02   1.00800           0
      5991 MEMB     44       OL       H14S     hL       0.857200E-02   1.00800           0
      5992 MEMB     44       OL       C115     cD      -0.232470E-01   12.0100           0
      5993 MEMB     44       OL       H15R     hL       0.104030E-01   1.00800           0
      5994 MEMB     44       OL       H15S     hL       0.104030E-01   1.00800           0
      5995 MEMB     44       OL       C116     cD      -0.124880E-01   12.0100           0
      5996 MEMB     44       OL       H16R     hL       0.136590E-01   1.00800           0
      5997 MEMB     44       OL       H16S     hL       0.136590E-01   1.00800           0
      5998 MEMB     44       OL       C117     cD       0.868400E-02   12.0100           0
      5999 MEMB     44       OL       H17R     hL       0.100260E-01   1.00800           0
      6000 MEMB     44       OL       H17S     hL       0.100260E-01   1.00800           0
      6001 MEMB     44       OL       C118     cD      -0.117290       12.0100           0
      6002 MEMB     44       OL       H18R     hL       0.266270E-01   1.00800           0
      6003 MEMB     44       OL       H18S     hL       0.266270E-01   1.00800           0
      6004 MEMB     44       OL       H18T     hL       0.266270E-01   1.00800           0
      6005 MEMB     45       PA       C116     cD      -0.125447       12.0100           0
      6006 MEMB     45       PA       H16R     hL       0.290470E-01   1.00800           0
      6007 MEMB     45       PA       H16S     hL       0.290470E-01   1.00800           0
      6008 MEMB     45       PA       H16T     hL       0.290470E-01   1.00800           0
      6009 MEMB     45       PA       C115     cD       0.139750E-01   12.0100           0
      6010 MEMB     45       PA       H15R     hL       0.929200E-02   1.00800           0
      6011 MEMB     45       PA       H15S     hL       0.929200E-02   1.00800           0
      6012 MEMB     45       PA       C114     cD      -0.200860E-01   12.0100           0
      6013 MEMB     45       PA       H14R     hL       0.159290E-01   1.00800           0
      6014 MEMB     45       PA       H14S     hL       0.159290E-01   1.00800           0
      6015 MEMB     45       PA       C113     cD      -0.330960E-01   12.0100           0
      6016 MEMB     45       PA       H13R     hL       0.146210E-01   1.00800           0
      6017 MEMB     45       PA       H13S     hL       0.146210E-01   1.00800           0
      6018 MEMB     45       PA       C112     cD      -0.276330E-01   12.0100           0
      6019 MEMB     45       PA       H12R     hL       0.113680E-01   1.00800           0
      6020 MEMB     45       PA       H12S     hL       0.113680E-01   1.00800           0
      6021 MEMB     45       PA       C111     cD      -0.252060E-01   12.0100           0
      6022 MEMB     45       PA       H11R     hL       0.143340E-01   1.00800           0
      6023 MEMB     45       PA       H11S     hL       0.143340E-01   1.00800           0
      6024 MEMB     45       PA       C110     cD      -0.288310E-01   12.0100           0
      6025 MEMB     45       PA       H10R     hL       0.146910E-01   1.00800           0
      6026 MEMB     45       PA       H10S     hL       0.146910E-01   1.00800           0
      6027 MEMB     45       PA       C19      cD      -0.304720E-01   12.0100           0
      6028 MEMB     45       PA       H9R      hL       0.138970E-01   1.00800           0
      6029 MEMB     45       PA       H9S      hL       0.138970E-01   1.00800           0
      6030 MEMB     45       PA       C18      cD      -0.157930E-01   12.0100           0
      6031 MEMB     45       PA       H8R      hL       0.906700E-02   1.00800           0
      6032 MEMB     45       PA       H8S      hL       0.906700E-02   1.00800           0
      6033 MEMB     45       PA       C17      cD      -0.196300E-01   12.0100           0
      6034 MEMB     45       PA       H7R      hL       0.110410E-01   1.00800           0
      6035 MEMB     45       PA       H7S      hL       0.110410E-01   1.00800           0
      6036 MEMB     45       PA       C16      cD      -0.244270E-01   12.0100           0
      6037 MEMB     45       PA       H6R      hL       0.133340E-01   1.00800           0
      6038 MEMB     45       PA       H6S      hL       0.133340E-01   1.00800           0
      6039 MEMB     45       PA       C15      cD      -0.293870E-01   12.0100           0
      6040 MEMB     45       PA       H5R      hL       0.167630E-01   1.00800           0
      6041 MEMB     45       PA       H5S      hL       0.167630E-01   1.00800           0
      6042 MEMB     45       PA       C14      cD      -0.300990E-01   12.0100           0
      6043 MEMB     45       PA       H4R      hL       0.208770E-01   1.00800           0
      6044 MEMB     45       PA       H4S      hL       0.208770E-01   1.00800           0
      6045 MEMB     45       PA       C13      cD      -0.488200E-02   12.0100           0
      6046 MEMB     45       PA       H3R      hL       0.190070E-01   1.00800           0
      6047 MEMB     45       PA       H3S      hL       0.190070E-01   1.00800           0
      6048 MEMB     45       PA       C12      cD      -0.149259       12.0100           0
      6049 MEMB     45       PA       H2R      hL       0.473450E-01   1.00800           0
      6050 MEMB     45       PA       H2S      hL       0.473450E-01   1.00800           0
      6051 MEMB     45       PC       C11      cC       0.910403       12.0100           0
      6052 MEMB     45       PC       O12      oC      -0.671566       16.0000           0
      6053 MEMB     45       PC       O11      oS      -0.575489       16.0000           0
      6054 MEMB     45       PC       C1       cA       0.196939       12.0100           0
      6055 MEMB     45       PC       HR       hE       0.704690E-01   1.00800           0
      6056 MEMB     45       PC       HS       hE       0.704690E-01   1.00800           0
      6057 MEMB     45       PC       C2       cA       0.281242       12.0100           0
      6058 MEMB     45       PC       HX       hE       0.632530E-01   1.00800           0
      6059 MEMB     45       PC       C3       cA       0.174590E-01   12.0100           0
      6060 MEMB     45       PC       HA       hE       0.955910E-01   1.00800           0
      6061 MEMB     45       PC       HB       hE       0.955910E-01   1.00800           0
      6062 MEMB     45       PC       O31      oT      -0.509480       16.0000           0
      6063 MEMB     45       PC       P31      pA       1.339721       30.9700           0
      6064 MEMB     45       PC       O32      oT      -0.508176       16.0000           0
      6065 MEMB     45       PC       C31      cA       0.166801       12.0100           0
      6066 MEMB     45       PC       H1A      hE       0.785340E-01   1.00800           0
      6067 MEMB     45       PC       H1B      hE       0.785340E-01   1.00800           0
      6068 MEMB     45       PC       C32      cA      -0.170824       12.0100           0
      6069 MEMB     45       PC       H2A      hX       0.136415       1.00800           0
      6070 MEMB     45       PC       H2B      hX       0.136415       1.00800           0
      6071 MEMB     45       PC       N31      nA       0.245262       14.0100           0
      6072 MEMB     45       PC       C33      cA      -0.338973       12.0100           0
      6073 MEMB     45       PC       H3A      hX       0.172230       1.00800           0
      6074 MEMB     45       PC       H3B      hX       0.172230       1.00800           0
      6075 MEMB     45       PC       H3C      hX       0.172230       1.00800           0
      6076 MEMB     45       PC       C34      cA      -0.338973       12.0100           0
      6077 MEMB     45       PC       H4A      hX       0.172230       1.00800           0
      6078 MEMB     45       PC       H4B      hX       0.172230       1.00800           0
      6079 MEMB     45       PC       H4C      hX       0.172230       1.00800           0
      6080 MEMB     45       PC       C35      cA      -0.338973       12.0100           0
      6081 MEMB     45       PC       H5A      hX       0.172230       1.00800           0
      6082 MEMB     45       PC       H5B      hX       0.172230       1.00800           0
      6083 MEMB     45       PC       H5C      hX       0.172230       1.00800           0
      6084 MEMB     45       PC       O33      oP      -0.875812       16.0000           0
      6085 MEMB     45       PC       O34      oP      -0.875812       16.0000           0
      6086 MEMB     45       PC       O21      oS      -0.552948       16.0000           0
      6087 MEMB     45       PC       C21      cC       0.897613       12.0100           0
      6088 MEMB     45       PC       O22      oC      -0.673755       16.0000           0
      6089 MEMB     45       OL       C12      cD      -0.143418       12.0100           0
      6090 MEMB     45       OL       H2R      hL       0.428610E-01   1.00800           0
      6091 MEMB     45       OL       H2S      hL       0.428610E-01   1.00800           0
      6092 MEMB     45       OL       C13      cD       0.161900E-02   12.0100           0
      6093 MEMB     45       OL       H3R      hL       0.195290E-01   1.00800           0
      6094 MEMB     45       OL       H3S      hL       0.195290E-01   1.00800           0
      6095 MEMB     45       OL       C14      cD      -0.229600E-01   12.0100           0
      6096 MEMB     45       OL       H4R      hL       0.181340E-01   1.00800           0
      6097 MEMB     45       OL       H4S      hL       0.181340E-01   1.00800           0
      6098 MEMB     45       OL       C15      cD      -0.166920E-01   12.0100           0
      6099 MEMB     45       OL       H5R      hL       0.869000E-02   1.00800           0
      6100 MEMB     45       OL       H5S      hL       0.869000E-02   1.00800           0
      6101 MEMB     45       OL       C16      cD      -0.237890E-01   12.0100           0
      6102 MEMB     45       OL       H6R      hL       0.926600E-02   1.00800           0
      6103 MEMB     45       OL       H6S      hL       0.926600E-02   1.00800           0
      6104 MEMB     45       OL       C17      cD      -0.174950E-01   12.0100           0
      6105 MEMB     45       OL       H7R      hL       0.195980E-01   1.00800           0
      6106 MEMB     45       OL       H7S      hL       0.195980E-01   1.00800           0
      6107 MEMB     45       OL       C18      cD       0.317750E-01   12.0100           0
      6108 MEMB     45       OL       H8R      hL       0.326850E-01   1.00800           0
      6109 MEMB     45       OL       H8S      hL       0.326850E-01   1.00800           0
      6110 MEMB     45       OL       C19      cB      -0.244228       12.0100           0
      6111 MEMB     45       OL       H9R      hB       0.131512       1.00800           0
      6112 MEMB     45       OL       C110     cB      -0.239284       12.0100           0
      6113 MEMB     45       OL       H10R     hB       0.126878       1.00800           0
      6114 MEMB     45       OL       C111     cD       0.290590E-01   12.0100           0
      6115 MEMB     45       OL       H11R     hL       0.335310E-01   1.00800           0
      6116 MEMB     45       OL       H11S     hL       0.335310E-01   1.00800           0
      6117 MEMB     45       OL       C112     cD      -0.263530E-01   12.0100           0
      6118 MEMB     45       OL       H12R     hL       0.197170E-01   1.00800           0
      6119 MEMB     45       OL       H12S     hL       0.197170E-01   1.00800           0
      6120 MEMB     45       OL       C113     cD      -0.182570E-01   12.0100           0
      6121 MEMB     45       OL       H13R     hL       0.138000E-01   1.00800           0
      6122 MEMB     45       OL       H13S     hL       0.138000E-01   1.00800           0
      6123 MEMB     45       OL       C114     cD      -0.248490E-01   12.0100           0
      6124 MEMB     45       OL       H14R     hL       0.857200E-02   1.00800           0
      6125 MEMB     45       OL       H14S     hL       0.857200E-02   1.00800           0
      6126 MEMB     45       OL       C115     cD      -0.232470E-01   12.0100           0
      6127 MEMB     45       OL       H15R     hL       0.104030E-01   1.00800           0
      6128 MEMB     45       OL       H15S     hL       0.104030E-01   1.00800           0
      6129 MEMB     45       OL       C116     cD      -0.124880E-01   12.0100           0
      6130 MEMB     45       OL       H16R     hL       0.136590E-01   1.00800           0
      6131 MEMB     45       OL       H16S     hL       0.136590E-01   1.00800           0
      6132 MEMB     45       OL       C117     cD       0.868400E-02   12.0100           0
      6133 MEMB     45       OL       H17R     hL       0.100260E-01   1.00800           0
      6134 MEMB     45       OL       H17S     hL       0.100260E-01   1.00800           0
      6135 MEMB     45       OL       C118     cD      -0.117290       12.0100           0
      6136 MEMB     45       OL       H18R     hL       0.266270E-01   1.00800           0
      6137 MEMB     45       OL       H18S     hL       0.266270E-01   1.00800           0
      6138 MEMB     45       OL       H18T     hL       0.266270E-01   1.00800           0
      6139 MEMB     46       PA       C116     cD      -0.125447       12.0100           0
      6140 MEMB     46       PA       H16R     hL       0.290470E-01   1.00800           0
      6141 MEMB     46       PA       H16S     hL       0.290470E-01   1.00800           0
      6142 MEMB     46       PA       H16T     hL       0.290470E-01   1.00800           0
      6143 MEMB     46       PA       C115     cD       0.139750E-01   12.0100           0
      6144 MEMB     46       PA       H15R     hL       0.929200E-02   1.00800           0
      6145 MEMB     46       PA       H15S     hL       0.929200E-02   1.00800           0
      6146 MEMB     46       PA       C114     cD      -0.200860E-01   12.0100           0
      6147 MEMB     46       PA       H14R     hL       0.159290E-01   1.00800           0
      6148 MEMB     46       PA       H14S     hL       0.159290E-01   1.00800           0
      6149 MEMB     46       PA       C113     cD      -0.330960E-01   12.0100           0
      6150 MEMB     46       PA       H13R     hL       0.146210E-01   1.00800           0
      6151 MEMB     46       PA       H13S     hL       0.146210E-01   1.00800           0
      6152 MEMB     46       PA       C112     cD      -0.276330E-01   12.0100           0
      6153 MEMB     46       PA       H12R     hL       0.113680E-01   1.00800           0
      6154 MEMB     46       PA       H12S     hL       0.113680E-01   1.00800           0
      6155 MEMB     46       PA       C111     cD      -0.252060E-01   12.0100           0
      6156 MEMB     46       PA       H11R     hL       0.143340E-01   1.00800           0
      6157 MEMB     46       PA       H11S     hL       0.143340E-01   1.00800           0
      6158 MEMB     46       PA       C110     cD      -0.288310E-01   12.0100           0
      6159 MEMB     46       PA       H10R     hL       0.146910E-01   1.00800           0
      6160 MEMB     46       PA       H10S     hL       0.146910E-01   1.00800           0
      6161 MEMB     46       PA       C19      cD      -0.304720E-01   12.0100           0
      6162 MEMB     46       PA       H9R      hL       0.138970E-01   1.00800           0
      6163 MEMB     46       PA       H9S      hL       0.138970E-01   1.00800           0
      6164 MEMB     46       PA       C18      cD      -0.157930E-01   12.0100           0
      6165 MEMB     46       PA       H8R      hL       0.906700E-02   1.00800           0
      6166 MEMB     46       PA       H8S      hL       0.906700E-02   1.00800           0
      6167 MEMB     46       PA       C17      cD      -0.196300E-01   12.0100           0
      6168 MEMB     46       PA       H7R      hL       0.110410E-01   1.00800           0
      6169 MEMB     46       PA       H7S      hL       0.110410E-01   1.00800           0
      6170 MEMB     46       PA       C16      cD      -0.244270E-01   12.0100           0
      6171 MEMB     46       PA       H6R      hL       0.133340E-01   1.00800           0
      6172 MEMB     46       PA       H6S      hL       0.133340E-01   1.00800           0
      6173 MEMB     46       PA       C15      cD      -0.293870E-01   12.0100           0
      6174 MEMB     46       PA       H5R      hL       0.167630E-01   1.00800           0
      6175 MEMB     46       PA       H5S      hL       0.167630E-01   1.00800           0
      6176 MEMB     46       PA       C14      cD      -0.300990E-01   12.0100           0
      6177 MEMB     46       PA       H4R      hL       0.208770E-01   1.00800           0
      6178 MEMB     46       PA       H4S      hL       0.208770E-01   1.00800           0
      6179 MEMB     46       PA       C13      cD      -0.488200E-02   12.0100           0
      6180 MEMB     46       PA       H3R      hL       0.190070E-01   1.00800           0
      6181 MEMB     46       PA       H3S      hL       0.190070E-01   1.00800           0
      6182 MEMB     46       PA       C12      cD      -0.149259       12.0100           0
      6183 MEMB     46       PA       H2R      hL       0.473450E-01   1.00800           0
      6184 MEMB     46       PA       H2S      hL       0.473450E-01   1.00800           0
      6185 MEMB     46       PC       C11      cC       0.910403       12.0100           0
      6186 MEMB     46       PC       O12      oC      -0.671566       16.0000           0
      6187 MEMB     46       PC       O11      oS      -0.575489       16.0000           0
      6188 MEMB     46       PC       C1       cA       0.196939       12.0100           0
      6189 MEMB     46       PC       HR       hE       0.704690E-01   1.00800           0
      6190 MEMB     46       PC       HS       hE       0.704690E-01   1.00800           0
      6191 MEMB     46       PC       C2       cA       0.281242       12.0100           0
      6192 MEMB     46       PC       HX       hE       0.632530E-01   1.00800           0
      6193 MEMB     46       PC       C3       cA       0.174590E-01   12.0100           0
      6194 MEMB     46       PC       HA       hE       0.955910E-01   1.00800           0
      6195 MEMB     46       PC       HB       hE       0.955910E-01   1.00800           0
      6196 MEMB     46       PC       O31      oT      -0.509480       16.0000           0
      6197 MEMB     46       PC       P31      pA       1.339721       30.9700           0
      6198 MEMB     46       PC       O32      oT      -0.508176       16.0000           0
      6199 MEMB     46       PC       C31      cA       0.166801       12.0100           0
      6200 MEMB     46       PC       H1A      hE       0.785340E-01   1.00800           0
      6201 MEMB     46       PC       H1B      hE       0.785340E-01   1.00800           0
      6202 MEMB     46       PC       C32      cA      -0.170824       12.0100           0
      6203 MEMB     46       PC       H2A      hX       0.136415       1.00800           0
      6204 MEMB     46       PC       H2B      hX       0.136415       1.00800           0
      6205 MEMB     46       PC       N31      nA       0.245262       14.0100           0
      6206 MEMB     46       PC       C33      cA      -0.338973       12.0100           0
      6207 MEMB     46       PC       H3A      hX       0.172230       1.00800           0
      6208 MEMB     46       PC       H3B      hX       0.172230       1.00800           0
      6209 MEMB     46       PC       H3C      hX       0.172230       1.00800           0
      6210 MEMB     46       PC       C34      cA      -0.338973       12.0100           0
      6211 MEMB     46       PC       H4A      hX       0.172230       1.00800           0
      6212 MEMB     46       PC       H4B      hX       0.172230       1.00800           0
      6213 MEMB     46       PC       H4C      hX       0.172230       1.00800           0
      6214 MEMB     46       PC       C35      cA      -0.338973       12.0100           0
      6215 MEMB     46       PC       H5A      hX       0.172230       1.00800           0
      6216 MEMB     46       PC       H5B      hX       0.172230       1.00800           0
      6217 MEMB     46       PC       H5C      hX       0.172230       1.00800           0
      6218 MEMB     46       PC       O33      oP      -0.875812       16.0000           0
      6219 MEMB     46       PC       O34      oP      -0.875812       16.0000           0
      6220 MEMB     46       PC       O21      oS      -0.552948       16.0000           0
      6221 MEMB     46       PC       C21      cC       0.897613       12.0100           0
      6222 MEMB     46       PC       O22      oC      -0.673755       16.0000           0
      6223 MEMB     46       OL       C12      cD      -0.143418       12.0100           0
      6224 MEMB     46       OL       H2R      hL       0.428610E-01   1.00800           0
      6225 MEMB     46       OL       H2S      hL       0.428610E-01   1.00800           0
      6226 MEMB     46       OL       C13      cD       0.161900E-02   12.0100           0
      6227 MEMB     46       OL       H3R      hL       0.195290E-01   1.00800           0
      6228 MEMB     46       OL       H3S      hL       0.195290E-01   1.00800           0
      6229 MEMB     46       OL       C14      cD      -0.229600E-01   12.0100           0
      6230 MEMB     46       OL       H4R      hL       0.181340E-01   1.00800           0
      6231 MEMB     46       OL       H4S      hL       0.181340E-01   1.00800           0
      6232 MEMB     46       OL       C15      cD      -0.166920E-01   12.0100           0
      6233 MEMB     46       OL       H5R      hL       0.869000E-02   1.00800           0
      6234 MEMB     46       OL       H5S      hL       0.869000E-02   1.00800           0
      6235 MEMB     46       OL       C16      cD      -0.237890E-01   12.0100           0
      6236 MEMB     46       OL       H6R      hL       0.926600E-02   1.00800           0
      6237 MEMB     46       OL       H6S      hL       0.926600E-02   1.00800           0
      6238 MEMB     46       OL       C17      cD      -0.174950E-01   12.0100           0
      6239 MEMB     46       OL       H7R      hL       0.195980E-01   1.00800           0
      6240 MEMB     46       OL       H7S      hL       0.195980E-01   1.00800           0
      6241 MEMB     46       OL       C18      cD       0.317750E-01   12.0100           0
      6242 MEMB     46       OL       H8R      hL       0.326850E-01   1.00800           0
      6243 MEMB     46       OL       H8S      hL       0.326850E-01   1.00800           0
      6244 MEMB     46       OL       C19      cB      -0.244228       12.0100           0
      6245 MEMB     46       OL       H9R      hB       0.131512       1.00800           0
      6246 MEMB     46       OL       C110     cB      -0.239284       12.0100           0
      6247 MEMB     46       OL       H10R     hB       0.126878       1.00800           0
      6248 MEMB     46       OL       C111     cD       0.290590E-01   12.0100           0
      6249 MEMB     46       OL       H11R     hL       0.335310E-01   1.00800           0
      6250 MEMB     46       OL       H11S     hL       0.335310E-01   1.00800           0
      6251 MEMB     46       OL       C112     cD      -0.263530E-01   12.0100           0
      6252 MEMB     46       OL       H12R     hL       0.197170E-01   1.00800           0
      6253 MEMB     46       OL       H12S     hL       0.197170E-01   1.00800           0
      6254 MEMB     46       OL       C113     cD      -0.182570E-01   12.0100           0
      6255 MEMB     46       OL       H13R     hL       0.138000E-01   1.00800           0
      6256 MEMB     46       OL       H13S     hL       0.138000E-01   1.00800           0
      6257 MEMB     46       OL       C114     cD      -0.248490E-01   12.0100           0
      6258 MEMB     46       OL       H14R     hL       0.857200E-02   1.00800           0
      6259 MEMB     46       OL       H14S     hL       0.857200E-02   1.00800           0
      6260 MEMB     46       OL       C115     cD      -0.232470E-01   12.0100           0
      6261 MEMB     46       OL       H15R     hL       0.104030E-01   1.00800           0
      6262 MEMB     46       OL       H15S     hL       0.104030E-01   1.00800           0
      6263 MEMB     46       OL       C116     cD      -0.124880E-01   12.0100           0
      6264 MEMB     46       OL       H16R     hL       0.136590E-01   1.00800           0
      6265 MEMB     46       OL       H16S     hL       0.136590E-01   1.00800           0
      6266 MEMB     46       OL       C117     cD       0.868400E-02   12.0100           0
      6267 MEMB     46       OL       H17R     hL       0.100260E-01   1.00800           0
      6268 MEMB     46       OL       H17S     hL       0.100260E-01   1.00800           0
      6269 MEMB     46       OL       C118     cD      -0.117290       12.0100           0
      6270 MEMB     46       OL       H18R     hL       0.266270E-01   1.00800           0
      6271 MEMB     46       OL       H18S     hL       0.266270E-01   1.00800           0
      6272 MEMB     46       OL       H18T     hL       0.266270E-01   1.00800           0
      6273 MEMB     47       PA       C116     cD      -0.125447       12.0100           0
      6274 MEMB     47       PA       H16R     hL       0.290470E-01   1.00800           0
      6275 MEMB     47       PA       H16S     hL       0.290470E-01   1.00800           0
      6276 MEMB     47       PA       H16T     hL       0.290470E-01   1.00800           0
      6277 MEMB     47       PA       C115     cD       0.139750E-01   12.0100           0
      6278 MEMB     47       PA       H15R     hL       0.929200E-02   1.00800           0
      6279 MEMB     47       PA       H15S     hL       0.929200E-02   1.00800           0
      6280 MEMB     47       PA       C114     cD      -0.200860E-01   12.0100           0
      6281 MEMB     47       PA       H14R     hL       0.159290E-01   1.00800           0
      6282 MEMB     47       PA       H14S     hL       0.159290E-01   1.00800           0
      6283 MEMB     47       PA       C113     cD      -0.330960E-01   12.0100           0
      6284 MEMB     47       PA       H13R     hL       0.146210E-01   1.00800           0
      6285 MEMB     47       PA       H13S     hL       0.146210E-01   1.00800           0
      6286 MEMB     47       PA       C112     cD      -0.276330E-01   12.0100           0
      6287 MEMB     47       PA       H12R     hL       0.113680E-01   1.00800           0
      6288 MEMB     47       PA       H12S     hL       0.113680E-01   1.00800           0
      6289 MEMB     47       PA       C111     cD      -0.252060E-01   12.0100           0
      6290 MEMB     47       PA       H11R     hL       0.143340E-01   1.00800           0
      6291 MEMB     47       PA       H11S     hL       0.143340E-01   1.00800           0
      6292 MEMB     47       PA       C110     cD      -0.288310E-01   12.0100           0
      6293 MEMB     47       PA       H10R     hL       0.146910E-01   1.00800           0
      6294 MEMB     47       PA       H10S     hL       0.146910E-01   1.00800           0
      6295 MEMB     47       PA       C19      cD      -0.304720E-01   12.0100           0
      6296 MEMB     47       PA       H9R      hL       0.138970E-01   1.00800           0
      6297 MEMB     47       PA       H9S      hL       0.138970E-01   1.00800           0
      6298 MEMB     47       PA       C18      cD      -0.157930E-01   12.0100           0
      6299 MEMB     47       PA       H8R      hL       0.906700E-02   1.00800           0
      6300 MEMB     47       PA       H8S      hL       0.906700E-02   1.00800           0
      6301 MEMB     47       PA       C17      cD      -0.196300E-01   12.0100           0
      6302 MEMB     47       PA       H7R      hL       0.110410E-01   1.00800           0
      6303 MEMB     47       PA       H7S      hL       0.110410E-01   1.00800           0
      6304 MEMB     47       PA       C16      cD      -0.244270E-01   12.0100           0
      6305 MEMB     47       PA       H6R      hL       0.133340E-01   1.00800           0
      6306 MEMB     47       PA       H6S      hL       0.133340E-01   1.00800           0
      6307 MEMB     47       PA       C15      cD      -0.293870E-01   12.0100           0
      6308 MEMB     47       PA       H5R      hL       0.167630E-01   1.00800           0
      6309 MEMB     47       PA       H5S      hL       0.167630E-01   1.00800           0
      6310 MEMB     47       PA       C14      cD      -0.300990E-01   12.0100           0
      6311 MEMB     47       PA       H4R      hL       0.208770E-01   1.00800           0
      6312 MEMB     47       PA       H4S      hL       0.208770E-01   1.00800           0
      6313 MEMB     47       PA       C13      cD      -0.488200E-02   12.0100           0
      6314 MEMB     47       PA       H3R      hL       0.190070E-01   1.00800           0
      6315 MEMB     47       PA       H3S      hL       0.190070E-01   1.00800           0
      6316 MEMB     47       PA       C12      cD      -0.149259       12.0100           0
      6317 MEMB     47       PA       H2R      hL       0.473450E-01   1.00800           0
      6318 MEMB     47       PA       H2S      hL       0.473450E-01   1.00800           0
      6319 MEMB     47       PC       C11      cC       0.910403       12.0100           0
      6320 MEMB     47       PC       O12      oC      -0.671566       16.0000           0
      6321 MEMB     47       PC       O11      oS      -0.575489       16.0000           0
      6322 MEMB     47       PC       C1       cA       0.196939       12.0100           0
      6323 MEMB     47       PC       HR       hE       0.704690E-01   1.00800           0
      6324 MEMB     47       PC       HS       hE       0.704690E-01   1.00800           0
      6325 MEMB     47       PC       C2       cA       0.281242       12.0100           0
      6326 MEMB     47       PC       HX       hE       0.632530E-01   1.00800           0
      6327 MEMB     47       PC       C3       cA       0.174590E-01   12.0100           0
      6328 MEMB     47       PC       HA       hE       0.955910E-01   1.00800           0
      6329 MEMB     47       PC       HB       hE       0.955910E-01   1.00800           0
      6330 MEMB     47       PC       O31      oT      -0.509480       16.0000           0
      6331 MEMB     47       PC       P31      pA       1.339721       30.9700           0
      6332 MEMB     47       PC       O32      oT      -0.508176       16.0000           0
      6333 MEMB     47       PC       C31      cA       0.166801       12.0100           0
      6334 MEMB     47       PC       H1A      hE       0.785340E-01   1.00800           0
      6335 MEMB     47       PC       H1B      hE       0.785340E-01   1.00800           0
      6336 MEMB     47       PC       C32      cA      -0.170824       12.0100           0
      6337 MEMB     47       PC       H2A      hX       0.136415       1.00800           0
      6338 MEMB     47       PC       H2B      hX       0.136415       1.00800           0
      6339 MEMB     47       PC       N31      nA       0.245262       14.0100           0
      6340 MEMB     47       PC       C33      cA      -0.338973       12.0100           0
      6341 MEMB     47       PC       H3A      hX       0.172230       1.00800           0
      6342 MEMB     47       PC       H3B      hX       0.172230       1.00800           0
      6343 MEMB     47       PC       H3C      hX       0.172230       1.00800           0
      6344 MEMB     47       PC       C34      cA      -0.338973       12.0100           0
      6345 MEMB     47       PC       H4A      hX       0.172230       1.00800           0
      6346 MEMB     47       PC       H4B      hX       0.172230       1.00800           0
      6347 MEMB     47       PC       H4C      hX       0.172230       1.00800           0
      6348 MEMB     47       PC       C35      cA      -0.338973       12.0100           0
      6349 MEMB     47       PC       H5A      hX       0.172230       1.00800           0
      6350 MEMB     47       PC       H5B      hX       0.172230       1.00800           0
      6351 MEMB     47       PC       H5C      hX       0.172230       1.00800           0
      6352 MEMB     47       PC       O33      oP      -0.875812       16.0000           0
      6353 MEMB     47       PC       O34      oP      -0.875812       16.0000           0
      6354 MEMB     47       PC       O21      oS      -0.552948       16.0000           0
      6355 MEMB     47       PC       C21      cC       0.897613       12.0100           0
      6356 MEMB     47       PC       O22      oC      -0.673755       16.0000           0
      6357 MEMB     47       OL       C12      cD      -0.143418       12.0100           0
      6358 MEMB     47       OL       H2R      hL       0.428610E-01   1.00800           0
      6359 MEMB     47       OL       H2S      hL       0.428610E-01   1.00800           0
      6360 MEMB     47       OL       C13      cD       0.161900E-02   12.0100           0
      6361 MEMB     47       OL       H3R      hL       0.195290E-01   1.00800           0
      6362 MEMB     47       OL       H3S      hL       0.195290E-01   1.00800           0
      6363 MEMB     47       OL       C14      cD      -0.229600E-01   12.0100           0
      6364 MEMB     47       OL       H4R      hL       0.181340E-01   1.00800           0
      6365 MEMB     47       OL       H4S      hL       0.181340E-01   1.00800           0
      6366 MEMB     47       OL       C15      cD      -0.166920E-01   12.0100           0
      6367 MEMB     47       OL       H5R      hL       0.869000E-02   1.00800           0
      6368 MEMB     47       OL       H5S      hL       0.869000E-02   1.00800           0
      6369 MEMB     47       OL       C16      cD      -0.237890E-01   12.0100           0
      6370 MEMB     47       OL       H6R      hL       0.926600E-02   1.00800           0
      6371 MEMB     47       OL       H6S      hL       0.926600E-02   1.00800           0
      6372 MEMB     47       OL       C17      cD      -0.174950E-01   12.0100           0
      6373 MEMB     47       OL       H7R      hL       0.195980E-01   1.00800           0
      6374 MEMB     47       OL       H7S      hL       0.195980E-01   1.00800           0
      6375 MEMB     47       OL       C18      cD       0.317750E-01   12.0100           0
      6376 MEMB     47       OL       H8R      hL       0.326850E-01   1.00800           0
      6377 MEMB     47       OL       H8S      hL       0.326850E-01   1.00800           0
      6378 MEMB     47       OL       C19      cB      -0.244228       12.0100           0
      6379 MEMB     47       OL       H9R      hB       0.131512       1.00800           0
      6380 MEMB     47       OL       C110     cB      -0.239284       12.0100           0
      6381 MEMB     47       OL       H10R     hB       0.126878       1.00800           0
      6382 MEMB     47       OL       C111     cD       0.290590E-01   12.0100           0
      6383 MEMB     47       OL       H11R     hL       0.335310E-01   1.00800           0
      6384 MEMB     47       OL       H11S     hL       0.335310E-01   1.00800           0
      6385 MEMB     47       OL       C112     cD      -0.263530E-01   12.0100           0
      6386 MEMB     47       OL       H12R     hL       0.197170E-01   1.00800           0
      6387 MEMB     47       OL       H12S     hL       0.197170E-01   1.00800           0
      6388 MEMB     47       OL       C113     cD      -0.182570E-01   12.0100           0
      6389 MEMB     47       OL       H13R     hL       0.138000E-01   1.00800           0
      6390 MEMB     47       OL       H13S     hL       0.138000E-01   1.00800           0
      6391 MEMB     47       OL       C114     cD      -0.248490E-01   12.0100           0
      6392 MEMB     47       OL       H14R     hL       0.857200E-02   1.00800           0
      6393 MEMB     47       OL       H14S     hL       0.857200E-02   1.00800           0
      6394 MEMB     47       OL       C115     cD      -0.232470E-01   12.0100           0
      6395 MEMB     47       OL       H15R     hL       0.104030E-01   1.00800           0
      6396 MEMB     47       OL       H15S     hL       0.104030E-01   1.00800           0
      6397 MEMB     47       OL       C116     cD      -0.124880E-01   12.0100           0
      6398 MEMB     47       OL       H16R     hL       0.136590E-01   1.00800           0
      6399 MEMB     47       OL       H16S     hL       0.136590E-01   1.00800           0
      6400 MEMB     47       OL       C117     cD       0.868400E-02   12.0100           0
      6401 MEMB     47       OL       H17R     hL       0.100260E-01   1.00800           0
      6402 MEMB     47       OL       H17S     hL       0.100260E-01   1.00800           0
      6403 MEMB     47       OL       C118     cD      -0.117290       12.0100           0
      6404 MEMB     47       OL       H18R     hL       0.266270E-01   1.00800           0
      6405 MEMB     47       OL       H18S     hL       0.266270E-01   1.00800           0
      6406 MEMB     47       OL       H18T     hL       0.266270E-01   1.00800           0
      6407 MEMB     48       PA       C116     cD      -0.125447       12.0100           0
      6408 MEMB     48       PA       H16R     hL       0.290470E-01   1.00800           0
      6409 MEMB     48       PA       H16S     hL       0.290470E-01   1.00800           0
      6410 MEMB     48       PA       H16T     hL       0.290470E-01   1.00800           0
      6411 MEMB     48       PA       C115     cD       0.139750E-01   12.0100           0
      6412 MEMB     48       PA       H15R     hL       0.929200E-02   1.00800           0
      6413 MEMB     48       PA       H15S     hL       0.929200E-02   1.00800           0
      6414 MEMB     48       PA       C114     cD      -0.200860E-01   12.0100           0
      6415 MEMB     48       PA       H14R     hL       0.159290E-01   1.00800           0
      6416 MEMB     48       PA       H14S     hL       0.159290E-01   1.00800           0
      6417 MEMB     48       PA       C113     cD      -0.330960E-01   12.0100           0
      6418 MEMB     48       PA       H13R     hL       0.146210E-01   1.00800           0
      6419 MEMB     48       PA       H13S     hL       0.146210E-01   1.00800           0
      6420 MEMB     48       PA       C112     cD      -0.276330E-01   12.0100           0
      6421 MEMB     48       PA       H12R     hL       0.113680E-01   1.00800           0
      6422 MEMB     48       PA       H12S     hL       0.113680E-01   1.00800           0
      6423 MEMB     48       PA       C111     cD      -0.252060E-01   12.0100           0
      6424 MEMB     48       PA       H11R     hL       0.143340E-01   1.00800           0
      6425 MEMB     48       PA       H11S     hL       0.143340E-01   1.00800           0
      6426 MEMB     48       PA       C110     cD      -0.288310E-01   12.0100           0
      6427 MEMB     48       PA       H10R     hL       0.146910E-01   1.00800           0
      6428 MEMB     48       PA       H10S     hL       0.146910E-01   1.00800           0
      6429 MEMB     48       PA       C19      cD      -0.304720E-01   12.0100           0
      6430 MEMB     48       PA       H9R      hL       0.138970E-01   1.00800           0
      6431 MEMB     48       PA       H9S      hL       0.138970E-01   1.00800           0
      6432 MEMB     48       PA       C18      cD      -0.157930E-01   12.0100           0
      6433 MEMB     48       PA       H8R      hL       0.906700E-02   1.00800           0
      6434 MEMB     48       PA       H8S      hL       0.906700E-02   1.00800           0
      6435 MEMB     48       PA       C17      cD      -0.196300E-01   12.0100           0
      6436 MEMB     48       PA       H7R      hL       0.110410E-01   1.00800           0
      6437 MEMB     48       PA       H7S      hL       0.110410E-01   1.00800           0
      6438 MEMB     48       PA       C16      cD      -0.244270E-01   12.0100           0
      6439 MEMB     48       PA       H6R      hL       0.133340E-01   1.00800           0
      6440 MEMB     48       PA       H6S      hL       0.133340E-01   1.00800           0
      6441 MEMB     48       PA       C15      cD      -0.293870E-01   12.0100           0
      6442 MEMB     48       PA       H5R      hL       0.167630E-01   1.00800           0
      6443 MEMB     48       PA       H5S      hL       0.167630E-01   1.00800           0
      6444 MEMB     48       PA       C14      cD      -0.300990E-01   12.0100           0
      6445 MEMB     48       PA       H4R      hL       0.208770E-01   1.00800           0
      6446 MEMB     48       PA       H4S      hL       0.208770E-01   1.00800           0
      6447 MEMB     48       PA       C13      cD      -0.488200E-02   12.0100           0
      6448 MEMB     48       PA       H3R      hL       0.190070E-01   1.00800           0
      6449 MEMB     48       PA       H3S      hL       0.190070E-01   1.00800           0
      6450 MEMB     48       PA       C12      cD      -0.149259       12.0100           0
      6451 MEMB     48       PA       H2R      hL       0.473450E-01   1.00800           0
      6452 MEMB     48       PA       H2S      hL       0.473450E-01   1.00800           0
      6453 MEMB     48       PC       C11      cC       0.910403       12.0100           0
      6454 MEMB     48       PC       O12      oC      -0.671566       16.0000           0
      6455 MEMB     48       PC       O11      oS      -0.575489       16.0000           0
      6456 MEMB     48       PC       C1       cA       0.196939       12.0100           0
      6457 MEMB     48       PC       HR       hE       0.704690E-01   1.00800           0
      6458 MEMB     48       PC       HS       hE       0.704690E-01   1.00800           0
      6459 MEMB     48       PC       C2       cA       0.281242       12.0100           0
      6460 MEMB     48       PC       HX       hE       0.632530E-01   1.00800           0
      6461 MEMB     48       PC       C3       cA       0.174590E-01   12.0100           0
      6462 MEMB     48       PC       HA       hE       0.955910E-01   1.00800           0
      6463 MEMB     48       PC       HB       hE       0.955910E-01   1.00800           0
      6464 MEMB     48       PC       O31      oT      -0.509480       16.0000           0
      6465 MEMB     48       PC       P31      pA       1.339721       30.9700           0
      6466 MEMB     48       PC       O32      oT      -0.508176       16.0000           0
      6467 MEMB     48       PC       C31      cA       0.166801       12.0100           0
      6468 MEMB     48       PC       H1A      hE       0.785340E-01   1.00800           0
      6469 MEMB     48       PC       H1B      hE       0.785340E-01   1.00800           0
      6470 MEMB     48       PC       C32      cA      -0.170824       12.0100           0
      6471 MEMB     48       PC       H2A      hX       0.136415       1.00800           0
      6472 MEMB     48       PC       H2B      hX       0.136415       1.00800           0
      6473 MEMB     48       PC       N31      nA       0.245262       14.0100           0
      6474 MEMB     48       PC       C33      cA      -0.338973       12.0100           0
      6475 MEMB     48       PC       H3A      hX       0.172230       1.00800           0
      6476 MEMB     48       PC       H3B      hX       0.172230       1.00800           0
      6477 MEMB     48       PC       H3C      hX       0.172230       1.00800           0
      6478 MEMB     48       PC       C34      cA      -0.338973       12.0100           0
      6479 MEMB     48       PC       H4A      hX       0.172230       1.00800           0
      6480 MEMB     48       PC       H4B      hX       0.172230       1.00800           0
      6481 MEMB     48       PC       H4C      hX       0.172230       1.00800           0
      6482 MEMB     48       PC       C35      cA      -0.338973       12.0100           0
      6483 MEMB     48       PC       H5A      hX       0.172230       1.00800           0
      6484 MEMB     48       PC       H5B      hX       0.172230       1.00800           0
      6485 MEMB     48       PC       H5C      hX       0.172230       1.00800           0
      6486 MEMB     48       PC       O33      oP      -0.875812       16.0000           0
      6487 MEMB     48       PC       O34      oP      -0.875812       16.0000           0
      6488 MEMB     48       PC       O21      oS      -0.552948       16.0000           0
      6489 MEMB     48       PC       C21      cC       0.897613       12.0100           0
      6490 MEMB     48       PC       O22      oC      -0.673755       16.0000           0
      6491 MEMB     48       OL       C12      cD      -0.143418       12.0100           0
      6492 MEMB     48       OL       H2R      hL       0.428610E-01   1.00800           0
      6493 MEMB     48       OL       H2S      hL       0.428610E-01   1.00800           0
      6494 MEMB     48       OL       C13      cD       0.161900E-02   12.0100           0
      6495 MEMB     48       OL       H3R      hL       0.195290E-01   1.00800           0
      6496 MEMB     48       OL       H3S      hL       0.195290E-01   1.00800           0
      6497 MEMB     48       OL       C14      cD      -0.229600E-01   12.0100           0
      6498 MEMB     48       OL       H4R      hL       0.181340E-01   1.00800           0
      6499 MEMB     48       OL       H4S      hL       0.181340E-01   1.00800           0
      6500 MEMB     48       OL       C15      cD      -0.166920E-01   12.0100           0
      6501 MEMB     48       OL       H5R      hL       0.869000E-02   1.00800           0
      6502 MEMB     48       OL       H5S      hL       0.869000E-02   1.00800           0
      6503 MEMB     48       OL       C16      cD      -0.237890E-01   12.0100           0
      6504 MEMB     48       OL       H6R      hL       0.926600E-02   1.00800           0
      6505 MEMB     48       OL       H6S      hL       0.926600E-02   1.00800           0
      6506 MEMB     48       OL       C17      cD      -0.174950E-01   12.0100           0
      6507 MEMB     48       OL       H7R      hL       0.195980E-01   1.00800           0
      6508 MEMB     48       OL       H7S      hL       0.195980E-01   1.00800           0
      6509 MEMB     48       OL       C18      cD       0.317750E-01   12.0100           0
      6510 MEMB     48       OL       H8R      hL       0.326850E-01   1.00800           0
      6511 MEMB     48       OL       H8S      hL       0.326850E-01   1.00800           0
      6512 MEMB     48       OL       C19      cB      -0.244228       12.0100           0
      6513 MEMB     48       OL       H9R      hB       0.131512       1.00800           0
      6514 MEMB     48       OL       C110     cB      -0.239284       12.0100           0
      6515 MEMB     48       OL       H10R     hB       0.126878       1.00800           0
      6516 MEMB     48       OL       C111     cD       0.290590E-01   12.0100           0
      6517 MEMB     48       OL       H11R     hL       0.335310E-01   1.00800           0
      6518 MEMB     48       OL       H11S     hL       0.335310E-01   1.00800           0
      6519 MEMB     48       OL       C112     cD      -0.263530E-01   12.0100           0
      6520 MEMB     48       OL       H12R     hL       0.197170E-01   1.00800           0
      6521 MEMB     48       OL       H12S     hL       0.197170E-01   1.00800           0
      6522 MEMB     48       OL       C113     cD      -0.182570E-01   12.0100           0
      6523 MEMB     48       OL       H13R     hL       0.138000E-01   1.00800           0
      6524 MEMB     48       OL       H13S     hL       0.138000E-01   1.00800           0
      6525 MEMB     48       OL       C114     cD      -0.248490E-01   12.0100           0
      6526 MEMB     48       OL       H14R     hL       0.857200E-02   1.00800           0
      6527 MEMB     48       OL       H14S     hL       0.857200E-02   1.00800           0
      6528 MEMB     48       OL       C115     cD      -0.232470E-01   12.0100           0
      6529 MEMB     48       OL       H15R     hL       0.104030E-01   1.00800           0
      6530 MEMB     48       OL       H15S     hL       0.104030E-01   1.00800           0
      6531 MEMB     48       OL       C116     cD      -0.124880E-01   12.0100           0
      6532 MEMB     48       OL       H16R     hL       0.136590E-01   1.00800           0
      6533 MEMB     48       OL       H16S     hL       0.136590E-01   1.00800           0
      6534 MEMB     48       OL       C117     cD       0.868400E-02   12.0100           0
      6535 MEMB     48       OL       H17R     hL       0.100260E-01   1.00800           0
      6536 MEMB     48       OL       H17S     hL       0.100260E-01   1.00800           0
      6537 MEMB     48       OL       C118     cD      -0.117290       12.0100           0
      6538 MEMB     48       OL       H18R     hL       0.266270E-01   1.00800           0
      6539 MEMB     48       OL       H18S     hL       0.266270E-01   1.00800           0
      6540 MEMB     48       OL       H18T     hL       0.266270E-01   1.00800           0
      6541 MEMB     49       PA       C116     cD      -0.125447       12.0100           0
      6542 MEMB     49       PA       H16R     hL       0.290470E-01   1.00800           0
      6543 MEMB     49       PA       H16S     hL       0.290470E-01   1.00800           0
      6544 MEMB     49       PA       H16T     hL       0.290470E-01   1.00800           0
      6545 MEMB     49       PA       C115     cD       0.139750E-01   12.0100           0
      6546 MEMB     49       PA       H15R     hL       0.929200E-02   1.00800           0
      6547 MEMB     49       PA       H15S     hL       0.929200E-02   1.00800           0
      6548 MEMB     49       PA       C114     cD      -0.200860E-01   12.0100           0
      6549 MEMB     49       PA       H14R     hL       0.159290E-01   1.00800           0
      6550 MEMB     49       PA       H14S     hL       0.159290E-01   1.00800           0
      6551 MEMB     49       PA       C113     cD      -0.330960E-01   12.0100           0
      6552 MEMB     49       PA       H13R     hL       0.146210E-01   1.00800           0
      6553 MEMB     49       PA       H13S     hL       0.146210E-01   1.00800           0
      6554 MEMB     49       PA       C112     cD      -0.276330E-01   12.0100           0
      6555 MEMB     49       PA       H12R     hL       0.113680E-01   1.00800           0
      6556 MEMB     49       PA       H12S     hL       0.113680E-01   1.00800           0
      6557 MEMB     49       PA       C111     cD      -0.252060E-01   12.0100           0
      6558 MEMB     49       PA       H11R     hL       0.143340E-01   1.00800           0
      6559 MEMB     49       PA       H11S     hL       0.143340E-01   1.00800           0
      6560 MEMB     49       PA       C110     cD      -0.288310E-01   12.0100           0
      6561 MEMB     49       PA       H10R     hL       0.146910E-01   1.00800           0
      6562 MEMB     49       PA       H10S     hL       0.146910E-01   1.00800           0
      6563 MEMB     49       PA       C19      cD      -0.304720E-01   12.0100           0
      6564 MEMB     49       PA       H9R      hL       0.138970E-01   1.00800           0
      6565 MEMB     49       PA       H9S      hL       0.138970E-01   1.00800           0
      6566 MEMB     49       PA       C18      cD      -0.157930E-01   12.0100           0
      6567 MEMB     49       PA       H8R      hL       0.906700E-02   1.00800           0
      6568 MEMB     49       PA       H8S      hL       0.906700E-02   1.00800           0
      6569 MEMB     49       PA       C17      cD      -0.196300E-01   12.0100           0
      6570 MEMB     49       PA       H7R      hL       0.110410E-01   1.00800           0
      6571 MEMB     49       PA       H7S      hL       0.110410E-01   1.00800           0
      6572 MEMB     49       PA       C16      cD      -0.244270E-01   12.0100           0
      6573 MEMB     49       PA       H6R      hL       0.133340E-01   1.00800           0
      6574 MEMB     49       PA       H6S      hL       0.133340E-01   1.00800           0
      6575 MEMB     49       PA       C15      cD      -0.293870E-01   12.0100           0
      6576 MEMB     49       PA       H5R      hL       0.167630E-01   1.00800           0
      6577 MEMB     49       PA       H5S      hL       0.167630E-01   1.00800           0
      6578 MEMB     49       PA       C14      cD      -0.300990E-01   12.0100           0
      6579 MEMB     49       PA       H4R      hL       0.208770E-01   1.00800           0
      6580 MEMB     49       PA       H4S      hL       0.208770E-01   1.00800           0
      6581 MEMB     49       PA       C13      cD      -0.488200E-02   12.0100           0
      6582 MEMB     49       PA       H3R      hL       0.190070E-01   1.00800           0
      6583 MEMB     49       PA       H3S      hL       0.190070E-01   1.00800           0
      6584 MEMB     49       PA       C12      cD      -0.149259       12.0100           0
      6585 MEMB     49       PA       H2R      hL       0.473450E-01   1.00800           0
      6586 MEMB     49       PA       H2S      hL       0.473450E-01   1.00800           0
      6587 MEMB     49       PC       C11      cC       0.910403       12.0100           0
      6588 MEMB     49       PC       O12      oC      -0.671566       16.0000           0
      6589 MEMB     49       PC       O11      oS      -0.575489       16.0000           0
      6590 MEMB     49       PC       C1       cA       0.196939       12.0100           0
      6591 MEMB     49       PC       HR       hE       0.704690E-01   1.00800           0
      6592 MEMB     49       PC       HS       hE       0.704690E-01   1.00800           0
      6593 MEMB     49       PC       C2       cA       0.281242       12.0100           0
      6594 MEMB     49       PC       HX       hE       0.632530E-01   1.00800           0
      6595 MEMB     49       PC       C3       cA       0.174590E-01   12.0100           0
      6596 MEMB     49       PC       HA       hE       0.955910E-01   1.00800           0
      6597 MEMB     49       PC       HB       hE       0.955910E-01   1.00800           0
      6598 MEMB     49       PC       O31      oT      -0.509480       16.0000           0
      6599 MEMB     49       PC       P31      pA       1.339721       30.9700           0
      6600 MEMB     49       PC       O32      oT      -0.508176       16.0000           0
      6601 MEMB     49       PC       C31      cA       0.166801       12.0100           0
      6602 MEMB     49       PC       H1A      hE       0.785340E-01   1.00800           0
      6603 MEMB     49       PC       H1B      hE       0.785340E-01   1.00800           0
      6604 MEMB     49       PC       C32      cA      -0.170824       12.0100           0
      6605 MEMB     49       PC       H2A      hX       0.136415       1.00800           0
      6606 MEMB     49       PC       H2B      hX       0.136415       1.00800           0
      6607 MEMB     49       PC       N31      nA       0.245262       14.0100           0
      6608 MEMB     49       PC       C33      cA      -0.338973       12.0100           0
      6609 MEMB     49       PC       H3A      hX       0.172230       1.00800           0
      6610 MEMB     49       PC       H3B      hX       0.172230       1.00800           0
      6611 MEMB     49       PC       H3C      hX       0.172230       1.00800           0
      6612 MEMB     49       PC       C34      cA      -0.338973       12.0100           0
      6613 MEMB     49       PC       H4A      hX       0.172230       1.00800           0
      6614 MEMB     49       PC       H4B      hX       0.172230       1.00800           0
      6615 MEMB     49       PC       H4C      hX       0.172230       1.00800           0
      6616 MEMB     49       PC       C35      cA      -0.338973       12.0100           0
      6617 MEMB     49       PC       H5A      hX       0.172230       1.00800           0
      6618 MEMB     49       PC       H5B      hX       0.172230       1.00800           0
      6619 MEMB     49       PC       H5C      hX       0.172230       1.00800           0
      6620 MEMB     49       PC       O33      oP      -0.875812       16.0000           0
      6621 MEMB     49       PC       O34      oP      -0.875812       16.0000           0
      6622 MEMB     49       PC       O21      oS      -0.552948       16.0000           0
      6623 MEMB     49       PC       C21      cC       0.897613       12.0100           0
      6624 MEMB     49       PC       O22      oC      -0.673755       16.0000           0
      6625 MEMB     49       OL       C12      cD      -0.143418       12.0100           0
      6626 MEMB     49       OL       H2R      hL       0.428610E-01   1.00800           0
      6627 MEMB     49       OL       H2S      hL       0.428610E-01   1.00800           0
      6628 MEMB     49       OL       C13      cD       0.161900E-02   12.0100           0
      6629 MEMB     49       OL       H3R      hL       0.195290E-01   1.00800           0
      6630 MEMB     49       OL       H3S      hL       0.195290E-01   1.00800           0
      6631 MEMB     49       OL       C14      cD      -0.229600E-01   12.0100           0
      6632 MEMB     49       OL       H4R      hL       0.181340E-01   1.00800           0
      6633 MEMB     49       OL       H4S      hL       0.181340E-01   1.00800           0
      6634 MEMB     49       OL       C15      cD      -0.166920E-01   12.0100           0
      6635 MEMB     49       OL       H5R      hL       0.869000E-02   1.00800           0
      6636 MEMB     49       OL       H5S      hL       0.869000E-02   1.00800           0
      6637 MEMB     49       OL       C16      cD      -0.237890E-01   12.0100           0
      6638 MEMB     49       OL       H6R      hL       0.926600E-02   1.00800           0
      6639 MEMB     49       OL       H6S      hL       0.926600E-02   1.00800           0
      6640 MEMB     49       OL       C17      cD      -0.174950E-01   12.0100           0
      6641 MEMB     49       OL       H7R      hL       0.195980E-01   1.00800           0
      6642 MEMB     49       OL       H7S      hL       0.195980E-01   1.00800           0
      6643 MEMB     49       OL       C18      cD       0.317750E-01   12.0100           0
      6644 MEMB     49       OL       H8R      hL       0.326850E-01   1.00800           0
      6645 MEMB     49       OL       H8S      hL       0.326850E-01   1.00800           0
      6646 MEMB     49       OL       C19      cB      -0.244228       12.0100           0
      6647 MEMB     49       OL       H9R      hB       0.131512       1.00800           0
      6648 MEMB     49       OL       C110     cB      -0.239284       12.0100           0
      6649 MEMB     49       OL       H10R     hB       0.126878       1.00800           0
      6650 MEMB     49       OL       C111     cD       0.290590E-01   12.0100           0
      6651 MEMB     49       OL       H11R     hL       0.335310E-01   1.00800           0
      6652 MEMB     49       OL       H11S     hL       0.335310E-01   1.00800           0
      6653 MEMB     49       OL       C112     cD      -0.263530E-01   12.0100           0
      6654 MEMB     49       OL       H12R     hL       0.197170E-01   1.00800           0
      6655 MEMB     49       OL       H12S     hL       0.197170E-01   1.00800           0
      6656 MEMB     49       OL       C113     cD      -0.182570E-01   12.0100           0
      6657 MEMB     49       OL       H13R     hL       0.138000E-01   1.00800           0
      6658 MEMB     49       OL       H13S     hL       0.138000E-01   1.00800           0
      6659 MEMB     49       OL       C114     cD      -0.248490E-01   12.0100           0
      6660 MEMB     49       OL       H14R     hL       0.857200E-02   1.00800           0
      6661 MEMB     49       OL       H14S     hL       0.857200E-02   1.00800           0
      6662 MEMB     49       OL       C115     cD      -0.232470E-01   12.0100           0
      6663 MEMB     49       OL       H15R     hL       0.104030E-01   1.00800           0
      6664 MEMB     49       OL       H15S     hL       0.104030E-01   1.00800           0
      6665 MEMB     49       OL       C116     cD      -0.124880E-01   12.0100           0
      6666 MEMB     49       OL       H16R     hL       0.136590E-01   1.00800           0
      6667 MEMB     49       OL       H16S     hL       0.136590E-01   1.00800           0
      6668 MEMB     49       OL       C117     cD       0.868400E-02   12.0100           0
      6669 MEMB     49       OL       H17R     hL       0.100260E-01   1.00800           0
      6670 MEMB     49       OL       H17S     hL       0.100260E-01   1.00800           0
      6671 MEMB     49       OL       C118     cD      -0.117290       12.0100           0
      6672 MEMB     49       OL       H18R     hL       0.266270E-01   1.00800           0
      6673 MEMB     49       OL       H18S     hL       0.266270E-01   1.00800           0
      6674 MEMB     49       OL       H18T     hL       0.266270E-01   1.00800           0
      6675 MEMB     50       PA       C116     cD      -0.125447       12.0100           0
      6676 MEMB     50       PA       H16R     hL       0.290470E-01   1.00800           0
      6677 MEMB     50       PA       H16S     hL       0.290470E-01   1.00800           0
      6678 MEMB     50       PA       H16T     hL       0.290470E-01   1.00800           0
      6679 MEMB     50       PA       C115     cD       0.139750E-01   12.0100           0
      6680 MEMB     50       PA       H15R     hL       0.929200E-02   1.00800           0
      6681 MEMB     50       PA       H15S     hL       0.929200E-02   1.00800           0
      6682 MEMB     50       PA       C114     cD      -0.200860E-01   12.0100           0
      6683 MEMB     50       PA       H14R     hL       0.159290E-01   1.00800           0
      6684 MEMB     50       PA       H14S     hL       0.159290E-01   1.00800           0
      6685 MEMB     50       PA       C113     cD      -0.330960E-01   12.0100           0
      6686 MEMB     50       PA       H13R     hL       0.146210E-01   1.00800           0
      6687 MEMB     50       PA       H13S     hL       0.146210E-01   1.00800           0
      6688 MEMB     50       PA       C112     cD      -0.276330E-01   12.0100           0
      6689 MEMB     50       PA       H12R     hL       0.113680E-01   1.00800           0
      6690 MEMB     50       PA       H12S     hL       0.113680E-01   1.00800           0
      6691 MEMB     50       PA       C111     cD      -0.252060E-01   12.0100           0
      6692 MEMB     50       PA       H11R     hL       0.143340E-01   1.00800           0
      6693 MEMB     50       PA       H11S     hL       0.143340E-01   1.00800           0
      6694 MEMB     50       PA       C110     cD      -0.288310E-01   12.0100           0
      6695 MEMB     50       PA       H10R     hL       0.146910E-01   1.00800           0
      6696 MEMB     50       PA       H10S     hL       0.146910E-01   1.00800           0
      6697 MEMB     50       PA       C19      cD      -0.304720E-01   12.0100           0
      6698 MEMB     50       PA       H9R      hL       0.138970E-01   1.00800           0
      6699 MEMB     50       PA       H9S      hL       0.138970E-01   1.00800           0
      6700 MEMB     50       PA       C18      cD      -0.157930E-01   12.0100           0
      6701 MEMB     50       PA       H8R      hL       0.906700E-02   1.00800           0
      6702 MEMB     50       PA       H8S      hL       0.906700E-02   1.00800           0
      6703 MEMB     50       PA       C17      cD      -0.196300E-01   12.0100           0
      6704 MEMB     50       PA       H7R      hL       0.110410E-01   1.00800           0
      6705 MEMB     50       PA       H7S      hL       0.110410E-01   1.00800           0
      6706 MEMB     50       PA       C16      cD      -0.244270E-01   12.0100           0
      6707 MEMB     50       PA       H6R      hL       0.133340E-01   1.00800           0
      6708 MEMB     50       PA       H6S      hL       0.133340E-01   1.00800           0
      6709 MEMB     50       PA       C15      cD      -0.293870E-01   12.0100           0
      6710 MEMB     50       PA       H5R      hL       0.167630E-01   1.00800           0
      6711 MEMB     50       PA       H5S      hL       0.167630E-01   1.00800           0
      6712 MEMB     50       PA       C14      cD      -0.300990E-01   12.0100           0
      6713 MEMB     50       PA       H4R      hL       0.208770E-01   1.00800           0
      6714 MEMB     50       PA       H4S      hL       0.208770E-01   1.00800           0
      6715 MEMB     50       PA       C13      cD      -0.488200E-02   12.0100           0
      6716 MEMB     50       PA       H3R      hL       0.190070E-01   1.00800           0
      6717 MEMB     50       PA       H3S      hL       0.190070E-01   1.00800           0
      6718 MEMB     50       PA       C12      cD      -0.149259       12.0100           0
      6719 MEMB     50       PA       H2R      hL       0.473450E-01   1.00800           0
      6720 MEMB     50       PA       H2S      hL       0.473450E-01   1.00800           0
      6721 MEMB     50       PC       C11      cC       0.910403       12.0100           0
      6722 MEMB     50       PC       O12      oC      -0.671566       16.0000           0
      6723 MEMB     50       PC       O11      oS      -0.575489       16.0000           0
      6724 MEMB     50       PC       C1       cA       0.196939       12.0100           0
      6725 MEMB     50       PC       HR       hE       0.704690E-01   1.00800           0
      6726 MEMB     50       PC       HS       hE       0.704690E-01   1.00800           0
      6727 MEMB     50       PC       C2       cA       0.281242       12.0100           0
      6728 MEMB     50       PC       HX       hE       0.632530E-01   1.00800           0
      6729 MEMB     50       PC       C3       cA       0.174590E-01   12.0100           0
      6730 MEMB     50       PC       HA       hE       0.955910E-01   1.00800           0
      6731 MEMB     50       PC       HB       hE       0.955910E-01   1.00800           0
      6732 MEMB     50       PC       O31      oT      -0.509480       16.0000           0
      6733 MEMB     50       PC       P31      pA       1.339721       30.9700           0
      6734 MEMB     50       PC       O32      oT      -0.508176       16.0000           0
      6735 MEMB     50       PC       C31      cA       0.166801       12.0100           0
      6736 MEMB     50       PC       H1A      hE       0.785340E-01   1.00800           0
      6737 MEMB     50       PC       H1B      hE       0.785340E-01   1.00800           0
      6738 MEMB     50       PC       C32      cA      -0.170824       12.0100           0
      6739 MEMB     50       PC       H2A      hX       0.136415       1.00800           0
      6740 MEMB     50       PC       H2B      hX       0.136415       1.00800           0
      6741 MEMB     50       PC       N31      nA       0.245262       14.0100           0
      6742 MEMB     50       PC       C33      cA      -0.338973       12.0100           0
      6743 MEMB     50       PC       H3A      hX       0.172230       1.00800           0
      6744 MEMB     50       PC       H3B      hX       0.172230       1.00800           0
      6745 MEMB     50       PC       H3C      hX       0.172230       1.00800           0
      6746 MEMB     50       PC       C34      cA      -0.338973       12.0100           0
      6747 MEMB     50       PC       H4A      hX       0.172230       1.00800           0
      6748 MEMB     50       PC       H4B      hX       0.172230       1.00800           0
      6749 MEMB     50       PC       H4C      hX       0.172230       1.00800           0
      6750 MEMB     50       PC       C35      cA      -0.338973       12.0100           0
      6751 MEMB     50       PC       H5A      hX       0.172230       1.00800           0
      6752 MEMB     50       PC       H5B      hX       0.172230       1.00800           0
      6753 MEMB     50       PC       H5C      hX       0.172230       1.00800           0
      6754 MEMB     50       PC       O33      oP      -0.875812       16.0000           0
      6755 MEMB     50       PC       O34      oP      -0.875812       16.0000           0
      6756 MEMB     50       PC       O21      oS      -0.552948       16.0000           0
      6757 MEMB     50       PC       C21      cC       0.897613       12.0100           0
      6758 MEMB     50       PC       O22      oC      -0.673755       16.0000           0
      6759 MEMB     50       OL       C12      cD      -0.143418       12.0100           0
      6760 MEMB     50       OL       H2R      hL       0.428610E-01   1.00800           0
      6761 MEMB     50       OL       H2S      hL       0.428610E-01   1.00800           0
      6762 MEMB     50       OL       C13      cD       0.161900E-02   12.0100           0
      6763 MEMB     50       OL       H3R      hL       0.195290E-01   1.00800           0
      6764 MEMB     50       OL       H3S      hL       0.195290E-01   1.00800           0
      6765 MEMB     50       OL       C14      cD      -0.229600E-01   12.0100           0
      6766 MEMB     50       OL       H4R      hL       0.181340E-01   1.00800           0
      6767 MEMB     50       OL       H4S      hL       0.181340E-01   1.00800           0
      6768 MEMB     50       OL       C15      cD      -0.166920E-01   12.0100           0
      6769 MEMB     50       OL       H5R      hL       0.869000E-02   1.00800           0
      6770 MEMB     50       OL       H5S      hL       0.869000E-02   1.00800           0
      6771 MEMB     50       OL       C16      cD      -0.237890E-01   12.0100           0
      6772 MEMB     50       OL       H6R      hL       0.926600E-02   1.00800           0
      6773 MEMB     50       OL       H6S      hL       0.926600E-02   1.00800           0
      6774 MEMB     50       OL       C17      cD      -0.174950E-01   12.0100           0
      6775 MEMB     50       OL       H7R      hL       0.195980E-01   1.00800           0
      6776 MEMB     50       OL       H7S      hL       0.195980E-01   1.00800           0
      6777 MEMB     50       OL       C18      cD       0.317750E-01   12.0100           0
      6778 MEMB     50       OL       H8R      hL       0.326850E-01   1.00800           0
      6779 MEMB     50       OL       H8S      hL       0.326850E-01   1.00800           0
      6780 MEMB     50       OL       C19      cB      -0.244228       12.0100           0
      6781 MEMB     50       OL       H9R      hB       0.131512       1.00800           0
      6782 MEMB     50       OL       C110     cB      -0.239284       12.0100           0
      6783 MEMB     50       OL       H10R     hB       0.126878       1.00800           0
      6784 MEMB     50       OL       C111     cD       0.290590E-01   12.0100           0
      6785 MEMB     50       OL       H11R     hL       0.335310E-01   1.00800           0
      6786 MEMB     50       OL       H11S     hL       0.335310E-01   1.00800           0
      6787 MEMB     50       OL       C112     cD      -0.263530E-01   12.0100           0
      6788 MEMB     50       OL       H12R     hL       0.197170E-01   1.00800           0
      6789 MEMB     50       OL       H12S     hL       0.197170E-01   1.00800           0
      6790 MEMB     50       OL       C113     cD      -0.182570E-01   12.0100           0
      6791 MEMB     50       OL       H13R     hL       0.138000E-01   1.00800           0
      6792 MEMB     50       OL       H13S     hL       0.138000E-01   1.00800           0
      6793 MEMB     50       OL       C114     cD      -0.248490E-01   12.0100           0
      6794 MEMB     50       OL       H14R     hL       0.857200E-02   1.00800           0
      6795 MEMB     50       OL       H14S     hL       0.857200E-02   1.00800           0
      6796 MEMB     50       OL       C115     cD      -0.232470E-01   12.0100           0
      6797 MEMB     50       OL       H15R     hL       0.104030E-01   1.00800           0
      6798 MEMB     50       OL       H15S     hL       0.104030E-01   1.00800           0
      6799 MEMB     50       OL       C116     cD      -0.124880E-01   12.0100           0
      6800 MEMB     50       OL       H16R     hL       0.136590E-01   1.00800           0
      6801 MEMB     50       OL       H16S     hL       0.136590E-01   1.00800           0
      6802 MEMB     50       OL       C117     cD       0.868400E-02   12.0100           0
      6803 MEMB     50       OL       H17R     hL       0.100260E-01   1.00800           0
      6804 MEMB     50       OL       H17S     hL       0.100260E-01   1.00800           0
      6805 MEMB     50       OL       C118     cD      -0.117290       12.0100           0
      6806 MEMB     50       OL       H18R     hL       0.266270E-01   1.00800           0
      6807 MEMB     50       OL       H18S     hL       0.266270E-01   1.00800           0
      6808 MEMB     50       OL       H18T     hL       0.266270E-01   1.00800           0
      6809 MEMB     51       PA       C116     cD      -0.125447       12.0100           0
      6810 MEMB     51       PA       H16R     hL       0.290470E-01   1.00800           0
      6811 MEMB     51       PA       H16S     hL       0.290470E-01   1.00800           0
      6812 MEMB     51       PA       H16T     hL       0.290470E-01   1.00800           0
      6813 MEMB     51       PA       C115     cD       0.139750E-01   12.0100           0
      6814 MEMB     51       PA       H15R     hL       0.929200E-02   1.00800           0
      6815 MEMB     51       PA       H15S     hL       0.929200E-02   1.00800           0
      6816 MEMB     51       PA       C114     cD      -0.200860E-01   12.0100           0
      6817 MEMB     51       PA       H14R     hL       0.159290E-01   1.00800           0
      6818 MEMB     51       PA       H14S     hL       0.159290E-01   1.00800           0
      6819 MEMB     51       PA       C113     cD      -0.330960E-01   12.0100           0
      6820 MEMB     51       PA       H13R     hL       0.146210E-01   1.00800           0
      6821 MEMB     51       PA       H13S     hL       0.146210E-01   1.00800           0
      6822 MEMB     51       PA       C112     cD      -0.276330E-01   12.0100           0
      6823 MEMB     51       PA       H12R     hL       0.113680E-01   1.00800           0
      6824 MEMB     51       PA       H12S     hL       0.113680E-01   1.00800           0
      6825 MEMB     51       PA       C111     cD      -0.252060E-01   12.0100           0
      6826 MEMB     51       PA       H11R     hL       0.143340E-01   1.00800           0
      6827 MEMB     51       PA       H11S     hL       0.143340E-01   1.00800           0
      6828 MEMB     51       PA       C110     cD      -0.288310E-01   12.0100           0
      6829 MEMB     51       PA       H10R     hL       0.146910E-01   1.00800           0
      6830 MEMB     51       PA       H10S     hL       0.146910E-01   1.00800           0
      6831 MEMB     51       PA       C19      cD      -0.304720E-01   12.0100           0
      6832 MEMB     51       PA       H9R      hL       0.138970E-01   1.00800           0
      6833 MEMB     51       PA       H9S      hL       0.138970E-01   1.00800           0
      6834 MEMB     51       PA       C18      cD      -0.157930E-01   12.0100           0
      6835 MEMB     51       PA       H8R      hL       0.906700E-02   1.00800           0
      6836 MEMB     51       PA       H8S      hL       0.906700E-02   1.00800           0
      6837 MEMB     51       PA       C17      cD      -0.196300E-01   12.0100           0
      6838 MEMB     51       PA       H7R      hL       0.110410E-01   1.00800           0
      6839 MEMB     51       PA       H7S      hL       0.110410E-01   1.00800           0
      6840 MEMB     51       PA       C16      cD      -0.244270E-01   12.0100           0
      6841 MEMB     51       PA       H6R      hL       0.133340E-01   1.00800           0
      6842 MEMB     51       PA       H6S      hL       0.133340E-01   1.00800           0
      6843 MEMB     51       PA       C15      cD      -0.293870E-01   12.0100           0
      6844 MEMB     51       PA       H5R      hL       0.167630E-01   1.00800           0
      6845 MEMB     51       PA       H5S      hL       0.167630E-01   1.00800           0
      6846 MEMB     51       PA       C14      cD      -0.300990E-01   12.0100           0
      6847 MEMB     51       PA       H4R      hL       0.208770E-01   1.00800           0
      6848 MEMB     51       PA       H4S      hL       0.208770E-01   1.00800           0
      6849 MEMB     51       PA       C13      cD      -0.488200E-02   12.0100           0
      6850 MEMB     51       PA       H3R      hL       0.190070E-01   1.00800           0
      6851 MEMB     51       PA       H3S      hL       0.190070E-01   1.00800           0
      6852 MEMB     51       PA       C12      cD      -0.149259       12.0100           0
      6853 MEMB     51       PA       H2R      hL       0.473450E-01   1.00800           0
      6854 MEMB     51       PA       H2S      hL       0.473450E-01   1.00800           0
      6855 MEMB     51       PC       C11      cC       0.910403       12.0100           0
      6856 MEMB     51       PC       O12      oC      -0.671566       16.0000           0
      6857 MEMB     51       PC       O11      oS      -0.575489       16.0000           0
      6858 MEMB     51       PC       C1       cA       0.196939       12.0100           0
      6859 MEMB     51       PC       HR       hE       0.704690E-01   1.00800           0
      6860 MEMB     51       PC       HS       hE       0.704690E-01   1.00800           0
      6861 MEMB     51       PC       C2       cA       0.281242       12.0100           0
      6862 MEMB     51       PC       HX       hE       0.632530E-01   1.00800           0
      6863 MEMB     51       PC       C3       cA       0.174590E-01   12.0100           0
      6864 MEMB     51       PC       HA       hE       0.955910E-01   1.00800           0
      6865 MEMB     51       PC       HB       hE       0.955910E-01   1.00800           0
      6866 MEMB     51       PC       O31      oT      -0.509480       16.0000           0
      6867 MEMB     51       PC       P31      pA       1.339721       30.9700           0
      6868 MEMB     51       PC       O32      oT      -0.508176       16.0000           0
      6869 MEMB     51       PC       C31      cA       0.166801       12.0100           0
      6870 MEMB     51       PC       H1A      hE       0.785340E-01   1.00800           0
      6871 MEMB     51       PC       H1B      hE       0.785340E-01   1.00800           0
      6872 MEMB     51       PC       C32      cA      -0.170824       12.0100           0
      6873 MEMB     51       PC       H2A      hX       0.136415       1.00800           0
      6874 MEMB     51       PC       H2B      hX       0.136415       1.00800           0
      6875 MEMB     51       PC       N31      nA       0.245262       14.0100           0
      6876 MEMB     51       PC       C33      cA      -0.338973       12.0100           0
      6877 MEMB     51       PC       H3A      hX       0.172230       1.00800           0
      6878 MEMB     51       PC       H3B      hX       0.172230       1.00800           0
      6879 MEMB     51       PC       H3C      hX       0.172230       1.00800           0
      6880 MEMB     51       PC       C34      cA      -0.338973       12.0100           0
      6881 MEMB     51       PC       H4A      hX       0.172230       1.00800           0
      6882 MEMB     51       PC       H4B      hX       0.172230       1.00800           0
      6883 MEMB     51       PC       H4C      hX       0.172230       1.00800           0
      6884 MEMB     51       PC       C35      cA      -0.338973       12.0100           0
      6885 MEMB     51       PC       H5A      hX       0.172230       1.00800           0
      6886 MEMB     51       PC       H5B      hX       0.172230       1.00800           0
      6887 MEMB     51       PC       H5C      hX       0.172230       1.00800           0
      6888 MEMB     51       PC       O33      oP      -0.875812       16.0000           0
      6889 MEMB     51       PC       O34      oP      -0.875812       16.0000           0
      6890 MEMB     51       PC       O21      oS      -0.552948       16.0000           0
      6891 MEMB     51       PC       C21      cC       0.897613       12.0100           0
      6892 MEMB     51       PC       O22      oC      -0.673755       16.0000           0
      6893 MEMB     51       OL       C12      cD      -0.143418       12.0100           0
      6894 MEMB     51       OL       H2R      hL       0.428610E-01   1.00800           0
      6895 MEMB     51       OL       H2S      hL       0.428610E-01   1.00800           0
      6896 MEMB     51       OL       C13      cD       0.161900E-02   12.0100           0
      6897 MEMB     51       OL       H3R      hL       0.195290E-01   1.00800           0
      6898 MEMB     51       OL       H3S      hL       0.195290E-01   1.00800           0
      6899 MEMB     51       OL       C14      cD      -0.229600E-01   12.0100           0
      6900 MEMB     51       OL       H4R      hL       0.181340E-01   1.00800           0
      6901 MEMB     51       OL       H4S      hL       0.181340E-01   1.00800           0
      6902 MEMB     51       OL       C15      cD      -0.166920E-01   12.0100           0
      6903 MEMB     51       OL       H5R      hL       0.869000E-02   1.00800           0
      6904 MEMB     51       OL       H5S      hL       0.869000E-02   1.00800           0
      6905 MEMB     51       OL       C16      cD      -0.237890E-01   12.0100           0
      6906 MEMB     51       OL       H6R      hL       0.926600E-02   1.00800           0
      6907 MEMB     51       OL       H6S      hL       0.926600E-02   1.00800           0
      6908 MEMB     51       OL       C17      cD      -0.174950E-01   12.0100           0
      6909 MEMB     51       OL       H7R      hL       0.195980E-01   1.00800           0
      6910 MEMB     51       OL       H7S      hL       0.195980E-01   1.00800           0
      6911 MEMB     51       OL       C18      cD       0.317750E-01   12.0100           0
      6912 MEMB     51       OL       H8R      hL       0.326850E-01   1.00800           0
      6913 MEMB     51       OL       H8S      hL       0.326850E-01   1.00800           0
      6914 MEMB     51       OL       C19      cB      -0.244228       12.0100           0
      6915 MEMB     51       OL       H9R      hB       0.131512       1.00800           0
      6916 MEMB     51       OL       C110     cB      -0.239284       12.0100           0
      6917 MEMB     51       OL       H10R     hB       0.126878       1.00800           0
      6918 MEMB     51       OL       C111     cD       0.290590E-01   12.0100           0
      6919 MEMB     51       OL       H11R     hL       0.335310E-01   1.00800           0
      6920 MEMB     51       OL       H11S     hL       0.335310E-01   1.00800           0
      6921 MEMB     51       OL       C112     cD      -0.263530E-01   12.0100           0
      6922 MEMB     51       OL       H12R     hL       0.197170E-01   1.00800           0
      6923 MEMB     51       OL       H12S     hL       0.197170E-01   1.00800           0
      6924 MEMB     51       OL       C113     cD      -0.182570E-01   12.0100           0
      6925 MEMB     51       OL       H13R     hL       0.138000E-01   1.00800           0
      6926 MEMB     51       OL       H13S     hL       0.138000E-01   1.00800           0
      6927 MEMB     51       OL       C114     cD      -0.248490E-01   12.0100           0
      6928 MEMB     51       OL       H14R     hL       0.857200E-02   1.00800           0
      6929 MEMB     51       OL       H14S     hL       0.857200E-02   1.00800           0
      6930 MEMB     51       OL       C115     cD      -0.232470E-01   12.0100           0
      6931 MEMB     51       OL       H15R     hL       0.104030E-01   1.00800           0
      6932 MEMB     51       OL       H15S     hL       0.104030E-01   1.00800           0
      6933 MEMB     51       OL       C116     cD      -0.124880E-01   12.0100           0
      6934 MEMB     51       OL       H16R     hL       0.136590E-01   1.00800           0
      6935 MEMB     51       OL       H16S     hL       0.136590E-01   1.00800           0
      6936 MEMB     51       OL       C117     cD       0.868400E-02   12.0100           0
      6937 MEMB     51       OL       H17R     hL       0.100260E-01   1.00800           0
      6938 MEMB     51       OL       H17S     hL       0.100260E-01   1.00800           0
      6939 MEMB     51       OL       C118     cD      -0.117290       12.0100           0
      6940 MEMB     51       OL       H18R     hL       0.266270E-01   1.00800           0
      6941 MEMB     51       OL       H18S     hL       0.266270E-01   1.00800           0
      6942 MEMB     51       OL       H18T     hL       0.266270E-01   1.00800           0
      6943 MEMB     52       PA       C116     cD      -0.125447       12.0100           0
      6944 MEMB     52       PA       H16R     hL       0.290470E-01   1.00800           0
      6945 MEMB     52       PA       H16S     hL       0.290470E-01   1.00800           0
      6946 MEMB     52       PA       H16T     hL       0.290470E-01   1.00800           0
      6947 MEMB     52       PA       C115     cD       0.139750E-01   12.0100           0
      6948 MEMB     52       PA       H15R     hL       0.929200E-02   1.00800           0
      6949 MEMB     52       PA       H15S     hL       0.929200E-02   1.00800           0
      6950 MEMB     52       PA       C114     cD      -0.200860E-01   12.0100           0
      6951 MEMB     52       PA       H14R     hL       0.159290E-01   1.00800           0
      6952 MEMB     52       PA       H14S     hL       0.159290E-01   1.00800           0
      6953 MEMB     52       PA       C113     cD      -0.330960E-01   12.0100           0
      6954 MEMB     52       PA       H13R     hL       0.146210E-01   1.00800           0
      6955 MEMB     52       PA       H13S     hL       0.146210E-01   1.00800           0
      6956 MEMB     52       PA       C112     cD      -0.276330E-01   12.0100           0
      6957 MEMB     52       PA       H12R     hL       0.113680E-01   1.00800           0
      6958 MEMB     52       PA       H12S     hL       0.113680E-01   1.00800           0
      6959 MEMB     52       PA       C111     cD      -0.252060E-01   12.0100           0
      6960 MEMB     52       PA       H11R     hL       0.143340E-01   1.00800           0
      6961 MEMB     52       PA       H11S     hL       0.143340E-01   1.00800           0
      6962 MEMB     52       PA       C110     cD      -0.288310E-01   12.0100           0
      6963 MEMB     52       PA       H10R     hL       0.146910E-01   1.00800           0
      6964 MEMB     52       PA       H10S     hL       0.146910E-01   1.00800           0
      6965 MEMB     52       PA       C19      cD      -0.304720E-01   12.0100           0
      6966 MEMB     52       PA       H9R      hL       0.138970E-01   1.00800           0
      6967 MEMB     52       PA       H9S      hL       0.138970E-01   1.00800           0
      6968 MEMB     52       PA       C18      cD      -0.157930E-01   12.0100           0
      6969 MEMB     52       PA       H8R      hL       0.906700E-02   1.00800           0
      6970 MEMB     52       PA       H8S      hL       0.906700E-02   1.00800           0
      6971 MEMB     52       PA       C17      cD      -0.196300E-01   12.0100           0
      6972 MEMB     52       PA       H7R      hL       0.110410E-01   1.00800           0
      6973 MEMB     52       PA       H7S      hL       0.110410E-01   1.00800           0
      6974 MEMB     52       PA       C16      cD      -0.244270E-01   12.0100           0
      6975 MEMB     52       PA       H6R      hL       0.133340E-01   1.00800           0
      6976 MEMB     52       PA       H6S      hL       0.133340E-01   1.00800           0
      6977 MEMB     52       PA       C15      cD      -0.293870E-01   12.0100           0
      6978 MEMB     52       PA       H5R      hL       0.167630E-01   1.00800           0
      6979 MEMB     52       PA       H5S      hL       0.167630E-01   1.00800           0
      6980 MEMB     52       PA       C14      cD      -0.300990E-01   12.0100           0
      6981 MEMB     52       PA       H4R      hL       0.208770E-01   1.00800           0
      6982 MEMB     52       PA       H4S      hL       0.208770E-01   1.00800           0
      6983 MEMB     52       PA       C13      cD      -0.488200E-02   12.0100           0
      6984 MEMB     52       PA       H3R      hL       0.190070E-01   1.00800           0
      6985 MEMB     52       PA       H3S      hL       0.190070E-01   1.00800           0
      6986 MEMB     52       PA       C12      cD      -0.149259       12.0100           0
      6987 MEMB     52       PA       H2R      hL       0.473450E-01   1.00800           0
      6988 MEMB     52       PA       H2S      hL       0.473450E-01   1.00800           0
      6989 MEMB     52       PC       C11      cC       0.910403       12.0100           0
      6990 MEMB     52       PC       O12      oC      -0.671566       16.0000           0
      6991 MEMB     52       PC       O11      oS      -0.575489       16.0000           0
      6992 MEMB     52       PC       C1       cA       0.196939       12.0100           0
      6993 MEMB     52       PC       HR       hE       0.704690E-01   1.00800           0
      6994 MEMB     52       PC       HS       hE       0.704690E-01   1.00800           0
      6995 MEMB     52       PC       C2       cA       0.281242       12.0100           0
      6996 MEMB     52       PC       HX       hE       0.632530E-01   1.00800           0
      6997 MEMB     52       PC       C3       cA       0.174590E-01   12.0100           0
      6998 MEMB     52       PC       HA       hE       0.955910E-01   1.00800           0
      6999 MEMB     52       PC       HB       hE       0.955910E-01   1.00800           0
      7000 MEMB     52       PC       O31      oT      -0.509480       16.0000           0
      7001 MEMB     52       PC       P31      pA       1.339721       30.9700           0
      7002 MEMB     52       PC       O32      oT      -0.508176       16.0000           0
      7003 MEMB     52       PC       C31      cA       0.166801       12.0100           0
      7004 MEMB     52       PC       H1A      hE       0.785340E-01   1.00800           0
      7005 MEMB     52       PC       H1B      hE       0.785340E-01   1.00800           0
      7006 MEMB     52       PC       C32      cA      -0.170824       12.0100           0
      7007 MEMB     52       PC       H2A      hX       0.136415       1.00800           0
      7008 MEMB     52       PC       H2B      hX       0.136415       1.00800           0
      7009 MEMB     52       PC       N31      nA       0.245262       14.0100           0
      7010 MEMB     52       PC       C33      cA      -0.338973       12.0100           0
      7011 MEMB     52       PC       H3A      hX       0.172230       1.00800           0
      7012 MEMB     52       PC       H3B      hX       0.172230       1.00800           0
      7013 MEMB     52       PC       H3C      hX       0.172230       1.00800           0
      7014 MEMB     52       PC       C34      cA      -0.338973       12.0100           0
      7015 MEMB     52       PC       H4A      hX       0.172230       1.00800           0
      7016 MEMB     52       PC       H4B      hX       0.172230       1.00800           0
      7017 MEMB     52       PC       H4C      hX       0.172230       1.00800           0
      7018 MEMB     52       PC       C35      cA      -0.338973       12.0100           0
      7019 MEMB     52       PC       H5A      hX       0.172230       1.00800           0
      7020 MEMB     52       PC       H5B      hX       0.172230       1.00800           0
      7021 MEMB     52       PC       H5C      hX       0.172230       1.00800           0
      7022 MEMB     52       PC       O33      oP      -0.875812       16.0000           0
      7023 MEMB     52       PC       O34      oP      -0.875812       16.0000           0
      7024 MEMB     52       PC       O21      oS      -0.552948       16.0000           0
      7025 MEMB     52       PC       C21      cC       0.897613       12.0100           0
      7026 MEMB     52       PC       O22      oC      -0.673755       16.0000           0
      7027 MEMB     52       OL       C12      cD      -0.143418       12.0100           0
      7028 MEMB     52       OL       H2R      hL       0.428610E-01   1.00800           0
      7029 MEMB     52       OL       H2S      hL       0.428610E-01   1.00800           0
      7030 MEMB     52       OL       C13      cD       0.161900E-02   12.0100           0
      7031 MEMB     52       OL       H3R      hL       0.195290E-01   1.00800           0
      7032 MEMB     52       OL       H3S      hL       0.195290E-01   1.00800           0
      7033 MEMB     52       OL       C14      cD      -0.229600E-01   12.0100           0
      7034 MEMB     52       OL       H4R      hL       0.181340E-01   1.00800           0
      7035 MEMB     52       OL       H4S      hL       0.181340E-01   1.00800           0
      7036 MEMB     52       OL       C15      cD      -0.166920E-01   12.0100           0
      7037 MEMB     52       OL       H5R      hL       0.869000E-02   1.00800           0
      7038 MEMB     52       OL       H5S      hL       0.869000E-02   1.00800           0
      7039 MEMB     52       OL       C16      cD      -0.237890E-01   12.0100           0
      7040 MEMB     52       OL       H6R      hL       0.926600E-02   1.00800           0
      7041 MEMB     52       OL       H6S      hL       0.926600E-02   1.00800           0
      7042 MEMB     52       OL       C17      cD      -0.174950E-01   12.0100           0
      7043 MEMB     52       OL       H7R      hL       0.195980E-01   1.00800           0
      7044 MEMB     52       OL       H7S      hL       0.195980E-01   1.00800           0
      7045 MEMB     52       OL       C18      cD       0.317750E-01   12.0100           0
      7046 MEMB     52       OL       H8R      hL       0.326850E-01   1.00800           0
      7047 MEMB     52       OL       H8S      hL       0.326850E-01   1.00800           0
      7048 MEMB     52       OL       C19      cB      -0.244228       12.0100           0
      7049 MEMB     52       OL       H9R      hB       0.131512       1.00800           0
      7050 MEMB     52       OL       C110     cB      -0.239284       12.0100           0
      7051 MEMB     52       OL       H10R     hB       0.126878       1.00800           0
      7052 MEMB     52       OL       C111     cD       0.290590E-01   12.0100           0
      7053 MEMB     52       OL       H11R     hL       0.335310E-01   1.00800           0
      7054 MEMB     52       OL       H11S     hL       0.335310E-01   1.00800           0
      7055 MEMB     52       OL       C112     cD      -0.263530E-01   12.0100           0
      7056 MEMB     52       OL       H12R     hL       0.197170E-01   1.00800           0
      7057 MEMB     52       OL       H12S     hL       0.197170E-01   1.00800           0
      7058 MEMB     52       OL       C113     cD      -0.182570E-01   12.0100           0
      7059 MEMB     52       OL       H13R     hL       0.138000E-01   1.00800           0
      7060 MEMB     52       OL       H13S     hL       0.138000E-01   1.00800           0
      7061 MEMB     52       OL       C114     cD      -0.248490E-01   12.0100           0
      7062 MEMB     52       OL       H14R     hL       0.857200E-02   1.00800           0
      7063 MEMB     52       OL       H14S     hL       0.857200E-02   1.00800           0
      7064 MEMB     52       OL       C115     cD      -0.232470E-01   12.0100           0
      7065 MEMB     52       OL       H15R     hL       0.104030E-01   1.00800           0
      7066 MEMB     52       OL       H15S     hL       0.104030E-01   1.00800           0
      7067 MEMB     52       OL       C116     cD      -0.124880E-01   12.0100           0
      7068 MEMB     52       OL       H16R     hL       0.136590E-01   1.00800           0
      7069 MEMB     52       OL       H16S     hL       0.136590E-01   1.00800           0
      7070 MEMB     52       OL       C117     cD       0.868400E-02   12.0100           0
      7071 MEMB     52       OL       H17R     hL       0.100260E-01   1.00800           0
      7072 MEMB     52       OL       H17S     hL       0.100260E-01   1.00800           0
      7073 MEMB     52       OL       C118     cD      -0.117290       12.0100           0
      7074 MEMB     52       OL       H18R     hL       0.266270E-01   1.00800           0
      7075 MEMB     52       OL       H18S     hL       0.266270E-01   1.00800           0
      7076 MEMB     52       OL       H18T     hL       0.266270E-01   1.00800           0
      7077 MEMB     53       PA       C116     cD      -0.125447       12.0100           0
      7078 MEMB     53       PA       H16R     hL       0.290470E-01   1.00800           0
      7079 MEMB     53       PA       H16S     hL       0.290470E-01   1.00800           0
      7080 MEMB     53       PA       H16T     hL       0.290470E-01   1.00800           0
      7081 MEMB     53       PA       C115     cD       0.139750E-01   12.0100           0
      7082 MEMB     53       PA       H15R     hL       0.929200E-02   1.00800           0
      7083 MEMB     53       PA       H15S     hL       0.929200E-02   1.00800           0
      7084 MEMB     53       PA       C114     cD      -0.200860E-01   12.0100           0
      7085 MEMB     53       PA       H14R     hL       0.159290E-01   1.00800           0
      7086 MEMB     53       PA       H14S     hL       0.159290E-01   1.00800           0
      7087 MEMB     53       PA       C113     cD      -0.330960E-01   12.0100           0
      7088 MEMB     53       PA       H13R     hL       0.146210E-01   1.00800           0
      7089 MEMB     53       PA       H13S     hL       0.146210E-01   1.00800           0
      7090 MEMB     53       PA       C112     cD      -0.276330E-01   12.0100           0
      7091 MEMB     53       PA       H12R     hL       0.113680E-01   1.00800           0
      7092 MEMB     53       PA       H12S     hL       0.113680E-01   1.00800           0
      7093 MEMB     53       PA       C111     cD      -0.252060E-01   12.0100           0
      7094 MEMB     53       PA       H11R     hL       0.143340E-01   1.00800           0
      7095 MEMB     53       PA       H11S     hL       0.143340E-01   1.00800           0
      7096 MEMB     53       PA       C110     cD      -0.288310E-01   12.0100           0
      7097 MEMB     53       PA       H10R     hL       0.146910E-01   1.00800           0
      7098 MEMB     53       PA       H10S     hL       0.146910E-01   1.00800           0
      7099 MEMB     53       PA       C19      cD      -0.304720E-01   12.0100           0
      7100 MEMB     53       PA       H9R      hL       0.138970E-01   1.00800           0
      7101 MEMB     53       PA       H9S      hL       0.138970E-01   1.00800           0
      7102 MEMB     53       PA       C18      cD      -0.157930E-01   12.0100           0
      7103 MEMB     53       PA       H8R      hL       0.906700E-02   1.00800           0
      7104 MEMB     53       PA       H8S      hL       0.906700E-02   1.00800           0
      7105 MEMB     53       PA       C17      cD      -0.196300E-01   12.0100           0
      7106 MEMB     53       PA       H7R      hL       0.110410E-01   1.00800           0
      7107 MEMB     53       PA       H7S      hL       0.110410E-01   1.00800           0
      7108 MEMB     53       PA       C16      cD      -0.244270E-01   12.0100           0
      7109 MEMB     53       PA       H6R      hL       0.133340E-01   1.00800           0
      7110 MEMB     53       PA       H6S      hL       0.133340E-01   1.00800           0
      7111 MEMB     53       PA       C15      cD      -0.293870E-01   12.0100           0
      7112 MEMB     53       PA       H5R      hL       0.167630E-01   1.00800           0
      7113 MEMB     53       PA       H5S      hL       0.167630E-01   1.00800           0
      7114 MEMB     53       PA       C14      cD      -0.300990E-01   12.0100           0
      7115 MEMB     53       PA       H4R      hL       0.208770E-01   1.00800           0
      7116 MEMB     53       PA       H4S      hL       0.208770E-01   1.00800           0
      7117 MEMB     53       PA       C13      cD      -0.488200E-02   12.0100           0
      7118 MEMB     53       PA       H3R      hL       0.190070E-01   1.00800           0
      7119 MEMB     53       PA       H3S      hL       0.190070E-01   1.00800           0
      7120 MEMB     53       PA       C12      cD      -0.149259       12.0100           0
      7121 MEMB     53       PA       H2R      hL       0.473450E-01   1.00800           0
      7122 MEMB     53       PA       H2S      hL       0.473450E-01   1.00800           0
      7123 MEMB     53       PC       C11      cC       0.910403       12.0100           0
      7124 MEMB     53       PC       O12      oC      -0.671566       16.0000           0
      7125 MEMB     53       PC       O11      oS      -0.575489       16.0000           0
      7126 MEMB     53       PC       C1       cA       0.196939       12.0100           0
      7127 MEMB     53       PC       HR       hE       0.704690E-01   1.00800           0
      7128 MEMB     53       PC       HS       hE       0.704690E-01   1.00800           0
      7129 MEMB     53       PC       C2       cA       0.281242       12.0100           0
      7130 MEMB     53       PC       HX       hE       0.632530E-01   1.00800           0
      7131 MEMB     53       PC       C3       cA       0.174590E-01   12.0100           0
      7132 MEMB     53       PC       HA       hE       0.955910E-01   1.00800           0
      7133 MEMB     53       PC       HB       hE       0.955910E-01   1.00800           0
      7134 MEMB     53       PC       O31      oT      -0.509480       16.0000           0
      7135 MEMB     53       PC       P31      pA       1.339721       30.9700           0
      7136 MEMB     53       PC       O32      oT      -0.508176       16.0000           0
      7137 MEMB     53       PC       C31      cA       0.166801       12.0100           0
      7138 MEMB     53       PC       H1A      hE       0.785340E-01   1.00800           0
      7139 MEMB     53       PC       H1B      hE       0.785340E-01   1.00800           0
      7140 MEMB     53       PC       C32      cA      -0.170824       12.0100           0
      7141 MEMB     53       PC       H2A      hX       0.136415       1.00800           0
      7142 MEMB     53       PC       H2B      hX       0.136415       1.00800           0
      7143 MEMB     53       PC       N31      nA       0.245262       14.0100           0
      7144 MEMB     53       PC       C33      cA      -0.338973       12.0100           0
      7145 MEMB     53       PC       H3A      hX       0.172230       1.00800           0
      7146 MEMB     53       PC       H3B      hX       0.172230       1.00800           0
      7147 MEMB     53       PC       H3C      hX       0.172230       1.00800           0
      7148 MEMB     53       PC       C34      cA      -0.338973       12.0100           0
      7149 MEMB     53       PC       H4A      hX       0.172230       1.00800           0
      7150 MEMB     53       PC       H4B      hX       0.172230       1.00800           0
      7151 MEMB     53       PC       H4C      hX       0.172230       1.00800           0
      7152 MEMB     53       PC       C35      cA      -0.338973       12.0100           0
      7153 MEMB     53       PC       H5A      hX       0.172230       1.00800           0
      7154 MEMB     53       PC       H5B      hX       0.172230       1.00800           0
      7155 MEMB     53       PC       H5C      hX       0.172230       1.00800           0
      7156 MEMB     53       PC       O33      oP      -0.875812       16.0000           0
      7157 MEMB     53       PC       O34      oP      -0.875812       16.0000           0
      7158 MEMB     53       PC       O21      oS      -0.552948       16.0000           0
      7159 MEMB     53       PC       C21      cC       0.897613       12.0100           0
      7160 MEMB     53       PC       O22      oC      -0.673755       16.0000           0
      7161 MEMB     53       OL       C12      cD      -0.143418       12.0100           0
      7162 MEMB     53       OL       H2R      hL       0.428610E-01   1.00800           0
      7163 MEMB     53       OL       H2S      hL       0.428610E-01   1.00800           0
      7164 MEMB     53       OL       C13      cD       0.161900E-02   12.0100           0
      7165 MEMB     53       OL       H3R      hL       0.195290E-01   1.00800           0
      7166 MEMB     53       OL       H3S      hL       0.195290E-01   1.00800           0
      7167 MEMB     53       OL       C14      cD      -0.229600E-01   12.0100           0
      7168 MEMB     53       OL       H4R      hL       0.181340E-01   1.00800           0
      7169 MEMB     53       OL       H4S      hL       0.181340E-01   1.00800           0
      7170 MEMB     53       OL       C15      cD      -0.166920E-01   12.0100           0
      7171 MEMB     53       OL       H5R      hL       0.869000E-02   1.00800           0
      7172 MEMB     53       OL       H5S      hL       0.869000E-02   1.00800           0
      7173 MEMB     53       OL       C16      cD      -0.237890E-01   12.0100           0
      7174 MEMB     53       OL       H6R      hL       0.926600E-02   1.00800           0
      7175 MEMB     53       OL       H6S      hL       0.926600E-02   1.00800           0
      7176 MEMB     53       OL       C17      cD      -0.174950E-01   12.0100           0
      7177 MEMB     53       OL       H7R      hL       0.195980E-01   1.00800           0
      7178 MEMB     53       OL       H7S      hL       0.195980E-01   1.00800           0
      7179 MEMB     53       OL       C18      cD       0.317750E-01   12.0100           0
      7180 MEMB     53       OL       H8R      hL       0.326850E-01   1.00800           0
      7181 MEMB     53       OL       H8S      hL       0.326850E-01   1.00800           0
      7182 MEMB     53       OL       C19      cB      -0.244228       12.0100           0
      7183 MEMB     53       OL       H9R      hB       0.131512       1.00800           0
      7184 MEMB     53       OL       C110     cB      -0.239284       12.0100           0
      7185 MEMB     53       OL       H10R     hB       0.126878       1.00800           0
      7186 MEMB     53       OL       C111     cD       0.290590E-01   12.0100           0
      7187 MEMB     53       OL       H11R     hL       0.335310E-01   1.00800           0
      7188 MEMB     53       OL       H11S     hL       0.335310E-01   1.00800           0
      7189 MEMB     53       OL       C112     cD      -0.263530E-01   12.0100           0
      7190 MEMB     53       OL       H12R     hL       0.197170E-01   1.00800           0
      7191 MEMB     53       OL       H12S     hL       0.197170E-01   1.00800           0
      7192 MEMB     53       OL       C113     cD      -0.182570E-01   12.0100           0
      7193 MEMB     53       OL       H13R     hL       0.138000E-01   1.00800           0
      7194 MEMB     53       OL       H13S     hL       0.138000E-01   1.00800           0
      7195 MEMB     53       OL       C114     cD      -0.248490E-01   12.0100           0
      7196 MEMB     53       OL       H14R     hL       0.857200E-02   1.00800           0
      7197 MEMB     53       OL       H14S     hL       0.857200E-02   1.00800           0
      7198 MEMB     53       OL       C115     cD      -0.232470E-01   12.0100           0
      7199 MEMB     53       OL       H15R     hL       0.104030E-01   1.00800           0
      7200 MEMB     53       OL       H15S     hL       0.104030E-01   1.00800           0
      7201 MEMB     53       OL       C116     cD      -0.124880E-01   12.0100           0
      7202 MEMB     53       OL       H16R     hL       0.136590E-01   1.00800           0
      7203 MEMB     53       OL       H16S     hL       0.136590E-01   1.00800           0
      7204 MEMB     53       OL       C117     cD       0.868400E-02   12.0100           0
      7205 MEMB     53       OL       H17R     hL       0.100260E-01   1.00800           0
      7206 MEMB     53       OL       H17S     hL       0.100260E-01   1.00800           0
      7207 MEMB     53       OL       C118     cD      -0.117290       12.0100           0
      7208 MEMB     53       OL       H18R     hL       0.266270E-01   1.00800           0
      7209 MEMB     53       OL       H18S     hL       0.266270E-01   1.00800           0
      7210 MEMB     53       OL       H18T     hL       0.266270E-01   1.00800           0
      7211 MEMB     54       PA       C116     cD      -0.125447       12.0100           0
      7212 MEMB     54       PA       H16R     hL       0.290470E-01   1.00800           0
      7213 MEMB     54       PA       H16S     hL       0.290470E-01   1.00800           0
      7214 MEMB     54       PA       H16T     hL       0.290470E-01   1.00800           0
      7215 MEMB     54       PA       C115     cD       0.139750E-01   12.0100           0
      7216 MEMB     54       PA       H15R     hL       0.929200E-02   1.00800           0
      7217 MEMB     54       PA       H15S     hL       0.929200E-02   1.00800           0
      7218 MEMB     54       PA       C114     cD      -0.200860E-01   12.0100           0
      7219 MEMB     54       PA       H14R     hL       0.159290E-01   1.00800           0
      7220 MEMB     54       PA       H14S     hL       0.159290E-01   1.00800           0
      7221 MEMB     54       PA       C113     cD      -0.330960E-01   12.0100           0
      7222 MEMB     54       PA       H13R     hL       0.146210E-01   1.00800           0
      7223 MEMB     54       PA       H13S     hL       0.146210E-01   1.00800           0
      7224 MEMB     54       PA       C112     cD      -0.276330E-01   12.0100           0
      7225 MEMB     54       PA       H12R     hL       0.113680E-01   1.00800           0
      7226 MEMB     54       PA       H12S     hL       0.113680E-01   1.00800           0
      7227 MEMB     54       PA       C111     cD      -0.252060E-01   12.0100           0
      7228 MEMB     54       PA       H11R     hL       0.143340E-01   1.00800           0
      7229 MEMB     54       PA       H11S     hL       0.143340E-01   1.00800           0
      7230 MEMB     54       PA       C110     cD      -0.288310E-01   12.0100           0
      7231 MEMB     54       PA       H10R     hL       0.146910E-01   1.00800           0
      7232 MEMB     54       PA       H10S     hL       0.146910E-01   1.00800           0
      7233 MEMB     54       PA       C19      cD      -0.304720E-01   12.0100           0
      7234 MEMB     54       PA       H9R      hL       0.138970E-01   1.00800           0
      7235 MEMB     54       PA       H9S      hL       0.138970E-01   1.00800           0
      7236 MEMB     54       PA       C18      cD      -0.157930E-01   12.0100           0
      7237 MEMB     54       PA       H8R      hL       0.906700E-02   1.00800           0
      7238 MEMB     54       PA       H8S      hL       0.906700E-02   1.00800           0
      7239 MEMB     54       PA       C17      cD      -0.196300E-01   12.0100           0
      7240 MEMB     54       PA       H7R      hL       0.110410E-01   1.00800           0
      7241 MEMB     54       PA       H7S      hL       0.110410E-01   1.00800           0
      7242 MEMB     54       PA       C16      cD      -0.244270E-01   12.0100           0
      7243 MEMB     54       PA       H6R      hL       0.133340E-01   1.00800           0
      7244 MEMB     54       PA       H6S      hL       0.133340E-01   1.00800           0
      7245 MEMB     54       PA       C15      cD      -0.293870E-01   12.0100           0
      7246 MEMB     54       PA       H5R      hL       0.167630E-01   1.00800           0
      7247 MEMB     54       PA       H5S      hL       0.167630E-01   1.00800           0
      7248 MEMB     54       PA       C14      cD      -0.300990E-01   12.0100           0
      7249 MEMB     54       PA       H4R      hL       0.208770E-01   1.00800           0
      7250 MEMB     54       PA       H4S      hL       0.208770E-01   1.00800           0
      7251 MEMB     54       PA       C13      cD      -0.488200E-02   12.0100           0
      7252 MEMB     54       PA       H3R      hL       0.190070E-01   1.00800           0
      7253 MEMB     54       PA       H3S      hL       0.190070E-01   1.00800           0
      7254 MEMB     54       PA       C12      cD      -0.149259       12.0100           0
      7255 MEMB     54       PA       H2R      hL       0.473450E-01   1.00800           0
      7256 MEMB     54       PA       H2S      hL       0.473450E-01   1.00800           0
      7257 MEMB     54       PC       C11      cC       0.910403       12.0100           0
      7258 MEMB     54       PC       O12      oC      -0.671566       16.0000           0
      7259 MEMB     54       PC       O11      oS      -0.575489       16.0000           0
      7260 MEMB     54       PC       C1       cA       0.196939       12.0100           0
      7261 MEMB     54       PC       HR       hE       0.704690E-01   1.00800           0
      7262 MEMB     54       PC       HS       hE       0.704690E-01   1.00800           0
      7263 MEMB     54       PC       C2       cA       0.281242       12.0100           0
      7264 MEMB     54       PC       HX       hE       0.632530E-01   1.00800           0
      7265 MEMB     54       PC       C3       cA       0.174590E-01   12.0100           0
      7266 MEMB     54       PC       HA       hE       0.955910E-01   1.00800           0
      7267 MEMB     54       PC       HB       hE       0.955910E-01   1.00800           0
      7268 MEMB     54       PC       O31      oT      -0.509480       16.0000           0
      7269 MEMB     54       PC       P31      pA       1.339721       30.9700           0
      7270 MEMB     54       PC       O32      oT      -0.508176       16.0000           0
      7271 MEMB     54       PC       C31      cA       0.166801       12.0100           0
      7272 MEMB     54       PC       H1A      hE       0.785340E-01   1.00800           0
      7273 MEMB     54       PC       H1B      hE       0.785340E-01   1.00800           0
      7274 MEMB     54       PC       C32      cA      -0.170824       12.0100           0
      7275 MEMB     54       PC       H2A      hX       0.136415       1.00800           0
      7276 MEMB     54       PC       H2B      hX       0.136415       1.00800           0
      7277 MEMB     54       PC       N31      nA       0.245262       14.0100           0
      7278 MEMB     54       PC       C33      cA      -0.338973       12.0100           0
      7279 MEMB     54       PC       H3A      hX       0.172230       1.00800           0
      7280 MEMB     54       PC       H3B      hX       0.172230       1.00800           0
      7281 MEMB     54       PC       H3C      hX       0.172230       1.00800           0
      7282 MEMB     54       PC       C34      cA      -0.338973       12.0100           0
      7283 MEMB     54       PC       H4A      hX       0.172230       1.00800           0
      7284 MEMB     54       PC       H4B      hX       0.172230       1.00800           0
      7285 MEMB     54       PC       H4C      hX       0.172230       1.00800           0
      7286 MEMB     54       PC       C35      cA      -0.338973       12.0100           0
      7287 MEMB     54       PC       H5A      hX       0.172230       1.00800           0
      7288 MEMB     54       PC       H5B      hX       0.172230       1.00800           0
      7289 MEMB     54       PC       H5C      hX       0.172230       1.00800           0
      7290 MEMB     54       PC       O33      oP      -0.875812       16.0000           0
      7291 MEMB     54       PC       O34      oP      -0.875812       16.0000           0
      7292 MEMB     54       PC       O21      oS      -0.552948       16.0000           0
      7293 MEMB     54       PC       C21      cC       0.897613       12.0100           0
      7294 MEMB     54       PC       O22      oC      -0.673755       16.0000           0
      7295 MEMB     54       OL       C12      cD      -0.143418       12.0100           0
      7296 MEMB     54       OL       H2R      hL       0.428610E-01   1.00800           0
      7297 MEMB     54       OL       H2S      hL       0.428610E-01   1.00800           0
      7298 MEMB     54       OL       C13      cD       0.161900E-02   12.0100           0
      7299 MEMB     54       OL       H3R      hL       0.195290E-01   1.00800           0
      7300 MEMB     54       OL       H3S      hL       0.195290E-01   1.00800           0
      7301 MEMB     54       OL       C14      cD      -0.229600E-01   12.0100           0
      7302 MEMB     54       OL       H4R      hL       0.181340E-01   1.00800           0
      7303 MEMB     54       OL       H4S      hL       0.181340E-01   1.00800           0
      7304 MEMB     54       OL       C15      cD      -0.166920E-01   12.0100           0
      7305 MEMB     54       OL       H5R      hL       0.869000E-02   1.00800           0
      7306 MEMB     54       OL       H5S      hL       0.869000E-02   1.00800           0
      7307 MEMB     54       OL       C16      cD      -0.237890E-01   12.0100           0
      7308 MEMB     54       OL       H6R      hL       0.926600E-02   1.00800           0
      7309 MEMB     54       OL       H6S      hL       0.926600E-02   1.00800           0
      7310 MEMB     54       OL       C17      cD      -0.174950E-01   12.0100           0
      7311 MEMB     54       OL       H7R      hL       0.195980E-01   1.00800           0
      7312 MEMB     54       OL       H7S      hL       0.195980E-01   1.00800           0
      7313 MEMB     54       OL       C18      cD       0.317750E-01   12.0100           0
      7314 MEMB     54       OL       H8R      hL       0.326850E-01   1.00800           0
      7315 MEMB     54       OL       H8S      hL       0.326850E-01   1.00800           0
      7316 MEMB     54       OL       C19      cB      -0.244228       12.0100           0
      7317 MEMB     54       OL       H9R      hB       0.131512       1.00800           0
      7318 MEMB     54       OL       C110     cB      -0.239284       12.0100           0
      7319 MEMB     54       OL       H10R     hB       0.126878       1.00800           0
      7320 MEMB     54       OL       C111     cD       0.290590E-01   12.0100           0
      7321 MEMB     54       OL       H11R     hL       0.335310E-01   1.00800           0
      7322 MEMB     54       OL       H11S     hL       0.335310E-01   1.00800           0
      7323 MEMB     54       OL       C112     cD      -0.263530E-01   12.0100           0
      7324 MEMB     54       OL       H12R     hL       0.197170E-01   1.00800           0
      7325 MEMB     54       OL       H12S     hL       0.197170E-01   1.00800           0
      7326 MEMB     54       OL       C113     cD      -0.182570E-01   12.0100           0
      7327 MEMB     54       OL       H13R     hL       0.138000E-01   1.00800           0
      7328 MEMB     54       OL       H13S     hL       0.138000E-01   1.00800           0
      7329 MEMB     54       OL       C114     cD      -0.248490E-01   12.0100           0
      7330 MEMB     54       OL       H14R     hL       0.857200E-02   1.00800           0
      7331 MEMB     54       OL       H14S     hL       0.857200E-02   1.00800           0
      7332 MEMB     54       OL       C115     cD      -0.232470E-01   12.0100           0
      7333 MEMB     54       OL       H15R     hL       0.104030E-01   1.00800           0
      7334 MEMB     54       OL       H15S     hL       0.104030E-01   1.00800           0
      7335 MEMB     54       OL       C116     cD      -0.124880E-01   12.0100           0
      7336 MEMB     54       OL       H16R     hL       0.136590E-01   1.00800           0
      7337 MEMB     54       OL       H16S     hL       0.136590E-01   1.00800           0
      7338 MEMB     54       OL       C117     cD       0.868400E-02   12.0100           0
      7339 MEMB     54       OL       H17R     hL       0.100260E-01   1.00800           0
      7340 MEMB     54       OL       H17S     hL       0.100260E-01   1.00800           0
      7341 MEMB     54       OL       C118     cD      -0.117290       12.0100           0
      7342 MEMB     54       OL       H18R     hL       0.266270E-01   1.00800           0
      7343 MEMB     54       OL       H18S     hL       0.266270E-01   1.00800           0
      7344 MEMB     54       OL       H18T     hL       0.266270E-01   1.00800           0
      7345 MEMB     55       PA       C116     cD      -0.125447       12.0100           0
      7346 MEMB     55       PA       H16R     hL       0.290470E-01   1.00800           0
      7347 MEMB     55       PA       H16S     hL       0.290470E-01   1.00800           0
      7348 MEMB     55       PA       H16T     hL       0.290470E-01   1.00800           0
      7349 MEMB     55       PA       C115     cD       0.139750E-01   12.0100           0
      7350 MEMB     55       PA       H15R     hL       0.929200E-02   1.00800           0
      7351 MEMB     55       PA       H15S     hL       0.929200E-02   1.00800           0
      7352 MEMB     55       PA       C114     cD      -0.200860E-01   12.0100           0
      7353 MEMB     55       PA       H14R     hL       0.159290E-01   1.00800           0
      7354 MEMB     55       PA       H14S     hL       0.159290E-01   1.00800           0
      7355 MEMB     55       PA       C113     cD      -0.330960E-01   12.0100           0
      7356 MEMB     55       PA       H13R     hL       0.146210E-01   1.00800           0
      7357 MEMB     55       PA       H13S     hL       0.146210E-01   1.00800           0
      7358 MEMB     55       PA       C112     cD      -0.276330E-01   12.0100           0
      7359 MEMB     55       PA       H12R     hL       0.113680E-01   1.00800           0
      7360 MEMB     55       PA       H12S     hL       0.113680E-01   1.00800           0
      7361 MEMB     55       PA       C111     cD      -0.252060E-01   12.0100           0
      7362 MEMB     55       PA       H11R     hL       0.143340E-01   1.00800           0
      7363 MEMB     55       PA       H11S     hL       0.143340E-01   1.00800           0
      7364 MEMB     55       PA       C110     cD      -0.288310E-01   12.0100           0
      7365 MEMB     55       PA       H10R     hL       0.146910E-01   1.00800           0
      7366 MEMB     55       PA       H10S     hL       0.146910E-01   1.00800           0
      7367 MEMB     55       PA       C19      cD      -0.304720E-01   12.0100           0
      7368 MEMB     55       PA       H9R      hL       0.138970E-01   1.00800           0
      7369 MEMB     55       PA       H9S      hL       0.138970E-01   1.00800           0
      7370 MEMB     55       PA       C18      cD      -0.157930E-01   12.0100           0
      7371 MEMB     55       PA       H8R      hL       0.906700E-02   1.00800           0
      7372 MEMB     55       PA       H8S      hL       0.906700E-02   1.00800           0
      7373 MEMB     55       PA       C17      cD      -0.196300E-01   12.0100           0
      7374 MEMB     55       PA       H7R      hL       0.110410E-01   1.00800           0
      7375 MEMB     55       PA       H7S      hL       0.110410E-01   1.00800           0
      7376 MEMB     55       PA       C16      cD      -0.244270E-01   12.0100           0
      7377 MEMB     55       PA       H6R      hL       0.133340E-01   1.00800           0
      7378 MEMB     55       PA       H6S      hL       0.133340E-01   1.00800           0
      7379 MEMB     55       PA       C15      cD      -0.293870E-01   12.0100           0
      7380 MEMB     55       PA       H5R      hL       0.167630E-01   1.00800           0
      7381 MEMB     55       PA       H5S      hL       0.167630E-01   1.00800           0
      7382 MEMB     55       PA       C14      cD      -0.300990E-01   12.0100           0
      7383 MEMB     55       PA       H4R      hL       0.208770E-01   1.00800           0
      7384 MEMB     55       PA       H4S      hL       0.208770E-01   1.00800           0
      7385 MEMB     55       PA       C13      cD      -0.488200E-02   12.0100           0
      7386 MEMB     55       PA       H3R      hL       0.190070E-01   1.00800           0
      7387 MEMB     55       PA       H3S      hL       0.190070E-01   1.00800           0
      7388 MEMB     55       PA       C12      cD      -0.149259       12.0100           0
      7389 MEMB     55       PA       H2R      hL       0.473450E-01   1.00800           0
      7390 MEMB     55       PA       H2S      hL       0.473450E-01   1.00800           0
      7391 MEMB     55       PC       C11      cC       0.910403       12.0100           0
      7392 MEMB     55       PC       O12      oC      -0.671566       16.0000           0
      7393 MEMB     55       PC       O11      oS      -0.575489       16.0000           0
      7394 MEMB     55       PC       C1       cA       0.196939       12.0100           0
      7395 MEMB     55       PC       HR       hE       0.704690E-01   1.00800           0
      7396 MEMB     55       PC       HS       hE       0.704690E-01   1.00800           0
      7397 MEMB     55       PC       C2       cA       0.281242       12.0100           0
      7398 MEMB     55       PC       HX       hE       0.632530E-01   1.00800           0
      7399 MEMB     55       PC       C3       cA       0.174590E-01   12.0100           0
      7400 MEMB     55       PC       HA       hE       0.955910E-01   1.00800           0
      7401 MEMB     55       PC       HB       hE       0.955910E-01   1.00800           0
      7402 MEMB     55       PC       O31      oT      -0.509480       16.0000           0
      7403 MEMB     55       PC       P31      pA       1.339721       30.9700           0
      7404 MEMB     55       PC       O32      oT      -0.508176       16.0000           0
      7405 MEMB     55       PC       C31      cA       0.166801       12.0100           0
      7406 MEMB     55       PC       H1A      hE       0.785340E-01   1.00800           0
      7407 MEMB     55       PC       H1B      hE       0.785340E-01   1.00800           0
      7408 MEMB     55       PC       C32      cA      -0.170824       12.0100           0
      7409 MEMB     55       PC       H2A      hX       0.136415       1.00800           0
      7410 MEMB     55       PC       H2B      hX       0.136415       1.00800           0
      7411 MEMB     55       PC       N31      nA       0.245262       14.0100           0
      7412 MEMB     55       PC       C33      cA      -0.338973       12.0100           0
      7413 MEMB     55       PC       H3A      hX       0.172230       1.00800           0
      7414 MEMB     55       PC       H3B      hX       0.172230       1.00800           0
      7415 MEMB     55       PC       H3C      hX       0.172230       1.00800           0
      7416 MEMB     55       PC       C34      cA      -0.338973       12.0100           0
      7417 MEMB     55       PC       H4A      hX       0.172230       1.00800           0
      7418 MEMB     55       PC       H4B      hX       0.172230       1.00800           0
      7419 MEMB     55       PC       H4C      hX       0.172230       1.00800           0
      7420 MEMB     55       PC       C35      cA      -0.338973       12.0100           0
      7421 MEMB     55       PC       H5A      hX       0.172230       1.00800           0
      7422 MEMB     55       PC       H5B      hX       0.172230       1.00800           0
      7423 MEMB     55       PC       H5C      hX       0.172230       1.00800           0
      7424 MEMB     55       PC       O33      oP      -0.875812       16.0000           0
      7425 MEMB     55       PC       O34      oP      -0.875812       16.0000           0
      7426 MEMB     55       PC       O21      oS      -0.552948       16.0000           0
      7427 MEMB     55       PC       C21      cC       0.897613       12.0100           0
      7428 MEMB     55       PC       O22      oC      -0.673755       16.0000           0
      7429 MEMB     55       OL       C12      cD      -0.143418       12.0100           0
      7430 MEMB     55       OL       H2R      hL       0.428610E-01   1.00800           0
      7431 MEMB     55       OL       H2S      hL       0.428610E-01   1.00800           0
      7432 MEMB     55       OL       C13      cD       0.161900E-02   12.0100           0
      7433 MEMB     55       OL       H3R      hL       0.195290E-01   1.00800           0
      7434 MEMB     55       OL       H3S      hL       0.195290E-01   1.00800           0
      7435 MEMB     55       OL       C14      cD      -0.229600E-01   12.0100           0
      7436 MEMB     55       OL       H4R      hL       0.181340E-01   1.00800           0
      7437 MEMB     55       OL       H4S      hL       0.181340E-01   1.00800           0
      7438 MEMB     55       OL       C15      cD      -0.166920E-01   12.0100           0
      7439 MEMB     55       OL       H5R      hL       0.869000E-02   1.00800           0
      7440 MEMB     55       OL       H5S      hL       0.869000E-02   1.00800           0
      7441 MEMB     55       OL       C16      cD      -0.237890E-01   12.0100           0
      7442 MEMB     55       OL       H6R      hL       0.926600E-02   1.00800           0
      7443 MEMB     55       OL       H6S      hL       0.926600E-02   1.00800           0
      7444 MEMB     55       OL       C17      cD      -0.174950E-01   12.0100           0
      7445 MEMB     55       OL       H7R      hL       0.195980E-01   1.00800           0
      7446 MEMB     55       OL       H7S      hL       0.195980E-01   1.00800           0
      7447 MEMB     55       OL       C18      cD       0.317750E-01   12.0100           0
      7448 MEMB     55       OL       H8R      hL       0.326850E-01   1.00800           0
      7449 MEMB     55       OL       H8S      hL       0.326850E-01   1.00800           0
      7450 MEMB     55       OL       C19      cB      -0.244228       12.0100           0
      7451 MEMB     55       OL       H9R      hB       0.131512       1.00800           0
      7452 MEMB     55       OL       C110     cB      -0.239284       12.0100           0
      7453 MEMB     55       OL       H10R     hB       0.126878       1.00800           0
      7454 MEMB     55       OL       C111     cD       0.290590E-01   12.0100           0
      7455 MEMB     55       OL       H11R     hL       0.335310E-01   1.00800           0
      7456 MEMB     55       OL       H11S     hL       0.335310E-01   1.00800           0
      7457 MEMB     55       OL       C112     cD      -0.263530E-01   12.0100           0
      7458 MEMB     55       OL       H12R     hL       0.197170E-01   1.00800           0
      7459 MEMB     55       OL       H12S     hL       0.197170E-01   1.00800           0
      7460 MEMB     55       OL       C113     cD      -0.182570E-01   12.0100           0
      7461 MEMB     55       OL       H13R     hL       0.138000E-01   1.00800           0
      7462 MEMB     55       OL       H13S     hL       0.138000E-01   1.00800           0
      7463 MEMB     55       OL       C114     cD      -0.248490E-01   12.0100           0
      7464 MEMB     55       OL       H14R     hL       0.857200E-02   1.00800           0
      7465 MEMB     55       OL       H14S     hL       0.857200E-02   1.00800           0
      7466 MEMB     55       OL       C115     cD      -0.232470E-01   12.0100           0
      7467 MEMB     55       OL       H15R     hL       0.104030E-01   1.00800           0
      7468 MEMB     55       OL       H15S     hL       0.104030E-01   1.00800           0
      7469 MEMB     55       OL       C116     cD      -0.124880E-01   12.0100           0
      7470 MEMB     55       OL       H16R     hL       0.136590E-01   1.00800           0
      7471 MEMB     55       OL       H16S     hL       0.136590E-01   1.00800           0
      7472 MEMB     55       OL       C117     cD       0.868400E-02   12.0100           0
      7473 MEMB     55       OL       H17R     hL       0.100260E-01   1.00800           0
      7474 MEMB     55       OL       H17S     hL       0.100260E-01   1.00800           0
      7475 MEMB     55       OL       C118     cD      -0.117290       12.0100           0
      7476 MEMB     55       OL       H18R     hL       0.266270E-01   1.00800           0
      7477 MEMB     55       OL       H18S     hL       0.266270E-01   1.00800           0
      7478 MEMB     55       OL       H18T     hL       0.266270E-01   1.00800           0
      7479 MEMB     56       PA       C116     cD      -0.125447       12.0100           0
      7480 MEMB     56       PA       H16R     hL       0.290470E-01   1.00800           0
      7481 MEMB     56       PA       H16S     hL       0.290470E-01   1.00800           0
      7482 MEMB     56       PA       H16T     hL       0.290470E-01   1.00800           0
      7483 MEMB     56       PA       C115     cD       0.139750E-01   12.0100           0
      7484 MEMB     56       PA       H15R     hL       0.929200E-02   1.00800           0
      7485 MEMB     56       PA       H15S     hL       0.929200E-02   1.00800           0
      7486 MEMB     56       PA       C114     cD      -0.200860E-01   12.0100           0
      7487 MEMB     56       PA       H14R     hL       0.159290E-01   1.00800           0
      7488 MEMB     56       PA       H14S     hL       0.159290E-01   1.00800           0
      7489 MEMB     56       PA       C113     cD      -0.330960E-01   12.0100           0
      7490 MEMB     56       PA       H13R     hL       0.146210E-01   1.00800           0
      7491 MEMB     56       PA       H13S     hL       0.146210E-01   1.00800           0
      7492 MEMB     56       PA       C112     cD      -0.276330E-01   12.0100           0
      7493 MEMB     56       PA       H12R     hL       0.113680E-01   1.00800           0
      7494 MEMB     56       PA       H12S     hL       0.113680E-01   1.00800           0
      7495 MEMB     56       PA       C111     cD      -0.252060E-01   12.0100           0
      7496 MEMB     56       PA       H11R     hL       0.143340E-01   1.00800           0
      7497 MEMB     56       PA       H11S     hL       0.143340E-01   1.00800           0
      7498 MEMB     56       PA       C110     cD      -0.288310E-01   12.0100           0
      7499 MEMB     56       PA       H10R     hL       0.146910E-01   1.00800           0
      7500 MEMB     56       PA       H10S     hL       0.146910E-01   1.00800           0
      7501 MEMB     56       PA       C19      cD      -0.304720E-01   12.0100           0
      7502 MEMB     56       PA       H9R      hL       0.138970E-01   1.00800           0
      7503 MEMB     56       PA       H9S      hL       0.138970E-01   1.00800           0
      7504 MEMB     56       PA       C18      cD      -0.157930E-01   12.0100           0
      7505 MEMB     56       PA       H8R      hL       0.906700E-02   1.00800           0
      7506 MEMB     56       PA       H8S      hL       0.906700E-02   1.00800           0
      7507 MEMB     56       PA       C17      cD      -0.196300E-01   12.0100           0
      7508 MEMB     56       PA       H7R      hL       0.110410E-01   1.00800           0
      7509 MEMB     56       PA       H7S      hL       0.110410E-01   1.00800           0
      7510 MEMB     56       PA       C16      cD      -0.244270E-01   12.0100           0
      7511 MEMB     56       PA       H6R      hL       0.133340E-01   1.00800           0
      7512 MEMB     56       PA       H6S      hL       0.133340E-01   1.00800           0
      7513 MEMB     56       PA       C15      cD      -0.293870E-01   12.0100           0
      7514 MEMB     56       PA       H5R      hL       0.167630E-01   1.00800           0
      7515 MEMB     56       PA       H5S      hL       0.167630E-01   1.00800           0
      7516 MEMB     56       PA       C14      cD      -0.300990E-01   12.0100           0
      7517 MEMB     56       PA       H4R      hL       0.208770E-01   1.00800           0
      7518 MEMB     56       PA       H4S      hL       0.208770E-01   1.00800           0
      7519 MEMB     56       PA       C13      cD      -0.488200E-02   12.0100           0
      7520 MEMB     56       PA       H3R      hL       0.190070E-01   1.00800           0
      7521 MEMB     56       PA       H3S      hL       0.190070E-01   1.00800           0
      7522 MEMB     56       PA       C12      cD      -0.149259       12.0100           0
      7523 MEMB     56       PA       H2R      hL       0.473450E-01   1.00800           0
      7524 MEMB     56       PA       H2S      hL       0.473450E-01   1.00800           0
      7525 MEMB     56       PC       C11      cC       0.910403       12.0100           0
      7526 MEMB     56       PC       O12      oC      -0.671566       16.0000           0
      7527 MEMB     56       PC       O11      oS      -0.575489       16.0000           0
      7528 MEMB     56       PC       C1       cA       0.196939       12.0100           0
      7529 MEMB     56       PC       HR       hE       0.704690E-01   1.00800           0
      7530 MEMB     56       PC       HS       hE       0.704690E-01   1.00800           0
      7531 MEMB     56       PC       C2       cA       0.281242       12.0100           0
      7532 MEMB     56       PC       HX       hE       0.632530E-01   1.00800           0
      7533 MEMB     56       PC       C3       cA       0.174590E-01   12.0100           0
      7534 MEMB     56       PC       HA       hE       0.955910E-01   1.00800           0
      7535 MEMB     56       PC       HB       hE       0.955910E-01   1.00800           0
      7536 MEMB     56       PC       O31      oT      -0.509480       16.0000           0
      7537 MEMB     56       PC       P31      pA       1.339721       30.9700           0
      7538 MEMB     56       PC       O32      oT      -0.508176       16.0000           0
      7539 MEMB     56       PC       C31      cA       0.166801       12.0100           0
      7540 MEMB     56       PC       H1A      hE       0.785340E-01   1.00800           0
      7541 MEMB     56       PC       H1B      hE       0.785340E-01   1.00800           0
      7542 MEMB     56       PC       C32      cA      -0.170824       12.0100           0
      7543 MEMB     56       PC       H2A      hX       0.136415       1.00800           0
      7544 MEMB     56       PC       H2B      hX       0.136415       1.00800           0
      7545 MEMB     56       PC       N31      nA       0.245262       14.0100           0
      7546 MEMB     56       PC       C33      cA      -0.338973       12.0100           0
      7547 MEMB     56       PC       H3A      hX       0.172230       1.00800           0
      7548 MEMB     56       PC       H3B      hX       0.172230       1.00800           0
      7549 MEMB     56       PC       H3C      hX       0.172230       1.00800           0
      7550 MEMB     56       PC       C34      cA      -0.338973       12.0100           0
      7551 MEMB     56       PC       H4A      hX       0.172230       1.00800           0
      7552 MEMB     56       PC       H4B      hX       0.172230       1.00800           0
      7553 MEMB     56       PC       H4C      hX       0.172230       1.00800           0
      7554 MEMB     56       PC       C35      cA      -0.338973       12.0100           0
      7555 MEMB     56       PC       H5A      hX       0.172230       1.00800           0
      7556 MEMB     56       PC       H5B      hX       0.172230       1.00800           0
      7557 MEMB     56       PC       H5C      hX       0.172230       1.00800           0
      7558 MEMB     56       PC       O33      oP      -0.875812       16.0000           0
      7559 MEMB     56       PC       O34      oP      -0.875812       16.0000           0
      7560 MEMB     56       PC       O21      oS      -0.552948       16.0000           0
      7561 MEMB     56       PC       C21      cC       0.897613       12.0100           0
      7562 MEMB     56       PC       O22      oC      -0.673755       16.0000           0
      7563 MEMB     56       OL       C12      cD      -0.143418       12.0100           0
      7564 MEMB     56       OL       H2R      hL       0.428610E-01   1.00800           0
      7565 MEMB     56       OL       H2S      hL       0.428610E-01   1.00800           0
      7566 MEMB     56       OL       C13      cD       0.161900E-02   12.0100           0
      7567 MEMB     56       OL       H3R      hL       0.195290E-01   1.00800           0
      7568 MEMB     56       OL       H3S      hL       0.195290E-01   1.00800           0
      7569 MEMB     56       OL       C14      cD      -0.229600E-01   12.0100           0
      7570 MEMB     56       OL       H4R      hL       0.181340E-01   1.00800           0
      7571 MEMB     56       OL       H4S      hL       0.181340E-01   1.00800           0
      7572 MEMB     56       OL       C15      cD      -0.166920E-01   12.0100           0
      7573 MEMB     56       OL       H5R      hL       0.869000E-02   1.00800           0
      7574 MEMB     56       OL       H5S      hL       0.869000E-02   1.00800           0
      7575 MEMB     56       OL       C16      cD      -0.237890E-01   12.0100           0
      7576 MEMB     56       OL       H6R      hL       0.926600E-02   1.00800           0
      7577 MEMB     56       OL       H6S      hL       0.926600E-02   1.00800           0
      7578 MEMB     56       OL       C17      cD      -0.174950E-01   12.0100           0
      7579 MEMB     56       OL       H7R      hL       0.195980E-01   1.00800           0
      7580 MEMB     56       OL       H7S      hL       0.195980E-01   1.00800           0
      7581 MEMB     56       OL       C18      cD       0.317750E-01   12.0100           0
      7582 MEMB     56       OL       H8R      hL       0.326850E-01   1.00800           0
      7583 MEMB     56       OL       H8S      hL       0.326850E-01   1.00800           0
      7584 MEMB     56       OL       C19      cB      -0.244228       12.0100           0
      7585 MEMB     56       OL       H9R      hB       0.131512       1.00800           0
      7586 MEMB     56       OL       C110     cB      -0.239284       12.0100           0
      7587 MEMB     56       OL       H10R     hB       0.126878       1.00800           0
      7588 MEMB     56       OL       C111     cD       0.290590E-01   12.0100           0
      7589 MEMB     56       OL       H11R     hL       0.335310E-01   1.00800           0
      7590 MEMB     56       OL       H11S     hL       0.335310E-01   1.00800           0
      7591 MEMB     56       OL       C112     cD      -0.263530E-01   12.0100           0
      7592 MEMB     56       OL       H12R     hL       0.197170E-01   1.00800           0
      7593 MEMB     56       OL       H12S     hL       0.197170E-01   1.00800           0
      7594 MEMB     56       OL       C113     cD      -0.182570E-01   12.0100           0
      7595 MEMB     56       OL       H13R     hL       0.138000E-01   1.00800           0
      7596 MEMB     56       OL       H13S     hL       0.138000E-01   1.00800           0
      7597 MEMB     56       OL       C114     cD      -0.248490E-01   12.0100           0
      7598 MEMB     56       OL       H14R     hL       0.857200E-02   1.00800           0
      7599 MEMB     56       OL       H14S     hL       0.857200E-02   1.00800           0
      7600 MEMB     56       OL       C115     cD      -0.232470E-01   12.0100           0
      7601 MEMB     56       OL       H15R     hL       0.104030E-01   1.00800           0
      7602 MEMB     56       OL       H15S     hL       0.104030E-01   1.00800           0
      7603 MEMB     56       OL       C116     cD      -0.124880E-01   12.0100           0
      7604 MEMB     56       OL       H16R     hL       0.136590E-01   1.00800           0
      7605 MEMB     56       OL       H16S     hL       0.136590E-01   1.00800           0
      7606 MEMB     56       OL       C117     cD       0.868400E-02   12.0100           0
      7607 MEMB     56       OL       H17R     hL       0.100260E-01   1.00800           0
      7608 MEMB     56       OL       H17S     hL       0.100260E-01   1.00800           0
      7609 MEMB     56       OL       C118     cD      -0.117290       12.0100           0
      7610 MEMB     56       OL       H18R     hL       0.266270E-01   1.00800           0
      7611 MEMB     56       OL       H18S     hL       0.266270E-01   1.00800           0
      7612 MEMB     56       OL       H18T     hL       0.266270E-01   1.00800           0
      7613 MEMB     57       PA       C116     cD      -0.125447       12.0100           0
      7614 MEMB     57       PA       H16R     hL       0.290470E-01   1.00800           0
      7615 MEMB     57       PA       H16S     hL       0.290470E-01   1.00800           0
      7616 MEMB     57       PA       H16T     hL       0.290470E-01   1.00800           0
      7617 MEMB     57       PA       C115     cD       0.139750E-01   12.0100           0
      7618 MEMB     57       PA       H15R     hL       0.929200E-02   1.00800           0
      7619 MEMB     57       PA       H15S     hL       0.929200E-02   1.00800           0
      7620 MEMB     57       PA       C114     cD      -0.200860E-01   12.0100           0
      7621 MEMB     57       PA       H14R     hL       0.159290E-01   1.00800           0
      7622 MEMB     57       PA       H14S     hL       0.159290E-01   1.00800           0
      7623 MEMB     57       PA       C113     cD      -0.330960E-01   12.0100           0
      7624 MEMB     57       PA       H13R     hL       0.146210E-01   1.00800           0
      7625 MEMB     57       PA       H13S     hL       0.146210E-01   1.00800           0
      7626 MEMB     57       PA       C112     cD      -0.276330E-01   12.0100           0
      7627 MEMB     57       PA       H12R     hL       0.113680E-01   1.00800           0
      7628 MEMB     57       PA       H12S     hL       0.113680E-01   1.00800           0
      7629 MEMB     57       PA       C111     cD      -0.252060E-01   12.0100           0
      7630 MEMB     57       PA       H11R     hL       0.143340E-01   1.00800           0
      7631 MEMB     57       PA       H11S     hL       0.143340E-01   1.00800           0
      7632 MEMB     57       PA       C110     cD      -0.288310E-01   12.0100           0
      7633 MEMB     57       PA       H10R     hL       0.146910E-01   1.00800           0
      7634 MEMB     57       PA       H10S     hL       0.146910E-01   1.00800           0
      7635 MEMB     57       PA       C19      cD      -0.304720E-01   12.0100           0
      7636 MEMB     57       PA       H9R      hL       0.138970E-01   1.00800           0
      7637 MEMB     57       PA       H9S      hL       0.138970E-01   1.00800           0
      7638 MEMB     57       PA       C18      cD      -0.157930E-01   12.0100           0
      7639 MEMB     57       PA       H8R      hL       0.906700E-02   1.00800           0
      7640 MEMB     57       PA       H8S      hL       0.906700E-02   1.00800           0
      7641 MEMB     57       PA       C17      cD      -0.196300E-01   12.0100           0
      7642 MEMB     57       PA       H7R      hL       0.110410E-01   1.00800           0
      7643 MEMB     57       PA       H7S      hL       0.110410E-01   1.00800           0
      7644 MEMB     57       PA       C16      cD      -0.244270E-01   12.0100           0
      7645 MEMB     57       PA       H6R      hL       0.133340E-01   1.00800           0
      7646 MEMB     57       PA       H6S      hL       0.133340E-01   1.00800           0
      7647 MEMB     57       PA       C15      cD      -0.293870E-01   12.0100           0
      7648 MEMB     57       PA       H5R      hL       0.167630E-01   1.00800           0
      7649 MEMB     57       PA       H5S      hL       0.167630E-01   1.00800           0
      7650 MEMB     57       PA       C14      cD      -0.300990E-01   12.0100           0
      7651 MEMB     57       PA       H4R      hL       0.208770E-01   1.00800           0
      7652 MEMB     57       PA       H4S      hL       0.208770E-01   1.00800           0
      7653 MEMB     57       PA       C13      cD      -0.488200E-02   12.0100           0
      7654 MEMB     57       PA       H3R      hL       0.190070E-01   1.00800           0
      7655 MEMB     57       PA       H3S      hL       0.190070E-01   1.00800           0
      7656 MEMB     57       PA       C12      cD      -0.149259       12.0100           0
      7657 MEMB     57       PA       H2R      hL       0.473450E-01   1.00800           0
      7658 MEMB     57       PA       H2S      hL       0.473450E-01   1.00800           0
      7659 MEMB     57       PC       C11      cC       0.910403       12.0100           0
      7660 MEMB     57       PC       O12      oC      -0.671566       16.0000           0
      7661 MEMB     57       PC       O11      oS      -0.575489       16.0000           0
      7662 MEMB     57       PC       C1       cA       0.196939       12.0100           0
      7663 MEMB     57       PC       HR       hE       0.704690E-01   1.00800           0
      7664 MEMB     57       PC       HS       hE       0.704690E-01   1.00800           0
      7665 MEMB     57       PC       C2       cA       0.281242       12.0100           0
      7666 MEMB     57       PC       HX       hE       0.632530E-01   1.00800           0
      7667 MEMB     57       PC       C3       cA       0.174590E-01   12.0100           0
      7668 MEMB     57       PC       HA       hE       0.955910E-01   1.00800           0
      7669 MEMB     57       PC       HB       hE       0.955910E-01   1.00800           0
      7670 MEMB     57       PC       O31      oT      -0.509480       16.0000           0
      7671 MEMB     57       PC       P31      pA       1.339721       30.9700           0
      7672 MEMB     57       PC       O32      oT      -0.508176       16.0000           0
      7673 MEMB     57       PC       C31      cA       0.166801       12.0100           0
      7674 MEMB     57       PC       H1A      hE       0.785340E-01   1.00800           0
      7675 MEMB     57       PC       H1B      hE       0.785340E-01   1.00800           0
      7676 MEMB     57       PC       C32      cA      -0.170824       12.0100           0
      7677 MEMB     57       PC       H2A      hX       0.136415       1.00800           0
      7678 MEMB     57       PC       H2B      hX       0.136415       1.00800           0
      7679 MEMB     57       PC       N31      nA       0.245262       14.0100           0
      7680 MEMB     57       PC       C33      cA      -0.338973       12.0100           0
      7681 MEMB     57       PC       H3A      hX       0.172230       1.00800           0
      7682 MEMB     57       PC       H3B      hX       0.172230       1.00800           0
      7683 MEMB     57       PC       H3C      hX       0.172230       1.00800           0
      7684 MEMB     57       PC       C34      cA      -0.338973       12.0100           0
      7685 MEMB     57       PC       H4A      hX       0.172230       1.00800           0
      7686 MEMB     57       PC       H4B      hX       0.172230       1.00800           0
      7687 MEMB     57       PC       H4C      hX       0.172230       1.00800           0
      7688 MEMB     57       PC       C35      cA      -0.338973       12.0100           0
      7689 MEMB     57       PC       H5A      hX       0.172230       1.00800           0
      7690 MEMB     57       PC       H5B      hX       0.172230       1.00800           0
      7691 MEMB     57       PC       H5C      hX       0.172230       1.00800           0
      7692 MEMB     57       PC       O33      oP      -0.875812       16.0000           0
      7693 MEMB     57       PC       O34      oP      -0.875812       16.0000           0
      7694 MEMB     57       PC       O21      oS      -0.552948       16.0000           0
      7695 MEMB     57       PC       C21      cC       0.897613       12.0100           0
      7696 MEMB     57       PC       O22      oC      -0.673755       16.0000           0
      7697 MEMB     57       OL       C12      cD      -0.143418       12.0100           0
      7698 MEMB     57       OL       H2R      hL       0.428610E-01   1.00800           0
      7699 MEMB     57       OL       H2S      hL       0.428610E-01   1.00800           0
      7700 MEMB     57       OL       C13      cD       0.161900E-02   12.0100           0
      7701 MEMB     57       OL       H3R      hL       0.195290E-01   1.00800           0
      7702 MEMB     57       OL       H3S      hL       0.195290E-01   1.00800           0
      7703 MEMB     57       OL       C14      cD      -0.229600E-01   12.0100           0
      7704 MEMB     57       OL       H4R      hL       0.181340E-01   1.00800           0
      7705 MEMB     57       OL       H4S      hL       0.181340E-01   1.00800           0
      7706 MEMB     57       OL       C15      cD      -0.166920E-01   12.0100           0
      7707 MEMB     57       OL       H5R      hL       0.869000E-02   1.00800           0
      7708 MEMB     57       OL       H5S      hL       0.869000E-02   1.00800           0
      7709 MEMB     57       OL       C16      cD      -0.237890E-01   12.0100           0
      7710 MEMB     57       OL       H6R      hL       0.926600E-02   1.00800           0
      7711 MEMB     57       OL       H6S      hL       0.926600E-02   1.00800           0
      7712 MEMB     57       OL       C17      cD      -0.174950E-01   12.0100           0
      7713 MEMB     57       OL       H7R      hL       0.195980E-01   1.00800           0
      7714 MEMB     57       OL       H7S      hL       0.195980E-01   1.00800           0
      7715 MEMB     57       OL       C18      cD       0.317750E-01   12.0100           0
      7716 MEMB     57       OL       H8R      hL       0.326850E-01   1.00800           0
      7717 MEMB     57       OL       H8S      hL       0.326850E-01   1.00800           0
      7718 MEMB     57       OL       C19      cB      -0.244228       12.0100           0
      7719 MEMB     57       OL       H9R      hB       0.131512       1.00800           0
      7720 MEMB     57       OL       C110     cB      -0.239284       12.0100           0
      7721 MEMB     57       OL       H10R     hB       0.126878       1.00800           0
      7722 MEMB     57       OL       C111     cD       0.290590E-01   12.0100           0
      7723 MEMB     57       OL       H11R     hL       0.335310E-01   1.00800           0
      7724 MEMB     57       OL       H11S     hL       0.335310E-01   1.00800           0
      7725 MEMB     57       OL       C112     cD      -0.263530E-01   12.0100           0
      7726 MEMB     57       OL       H12R     hL       0.197170E-01   1.00800           0
      7727 MEMB     57       OL       H12S     hL       0.197170E-01   1.00800           0
      7728 MEMB     57       OL       C113     cD      -0.182570E-01   12.0100           0
      7729 MEMB     57       OL       H13R     hL       0.138000E-01   1.00800           0
      7730 MEMB     57       OL       H13S     hL       0.138000E-01   1.00800           0
      7731 MEMB     57       OL       C114     cD      -0.248490E-01   12.0100           0
      7732 MEMB     57       OL       H14R     hL       0.857200E-02   1.00800           0
      7733 MEMB     57       OL       H14S     hL       0.857200E-02   1.00800           0
      7734 MEMB     57       OL       C115     cD      -0.232470E-01   12.0100           0
      7735 MEMB     57       OL       H15R     hL       0.104030E-01   1.00800           0
      7736 MEMB     57       OL       H15S     hL       0.104030E-01   1.00800           0
      7737 MEMB     57       OL       C116     cD      -0.124880E-01   12.0100           0
      7738 MEMB     57       OL       H16R     hL       0.136590E-01   1.00800           0
      7739 MEMB     57       OL       H16S     hL       0.136590E-01   1.00800           0
      7740 MEMB     57       OL       C117     cD       0.868400E-02   12.0100           0
      7741 MEMB     57       OL       H17R     hL       0.100260E-01   1.00800           0
      7742 MEMB     57       OL       H17S     hL       0.100260E-01   1.00800           0
      7743 MEMB     57       OL       C118     cD      -0.117290       12.0100           0
      7744 MEMB     57       OL       H18R     hL       0.266270E-01   1.00800           0
      7745 MEMB     57       OL       H18S     hL       0.266270E-01   1.00800           0
      7746 MEMB     57       OL       H18T     hL       0.266270E-01   1.00800           0
      7747 MEMB     58       PA       C116     cD      -0.125447       12.0100           0
      7748 MEMB     58       PA       H16R     hL       0.290470E-01   1.00800           0
      7749 MEMB     58       PA       H16S     hL       0.290470E-01   1.00800           0
      7750 MEMB     58       PA       H16T     hL       0.290470E-01   1.00800           0
      7751 MEMB     58       PA       C115     cD       0.139750E-01   12.0100           0
      7752 MEMB     58       PA       H15R     hL       0.929200E-02   1.00800           0
      7753 MEMB     58       PA       H15S     hL       0.929200E-02   1.00800           0
      7754 MEMB     58       PA       C114     cD      -0.200860E-01   12.0100           0
      7755 MEMB     58       PA       H14R     hL       0.159290E-01   1.00800           0
      7756 MEMB     58       PA       H14S     hL       0.159290E-01   1.00800           0
      7757 MEMB     58       PA       C113     cD      -0.330960E-01   12.0100           0
      7758 MEMB     58       PA       H13R     hL       0.146210E-01   1.00800           0
      7759 MEMB     58       PA       H13S     hL       0.146210E-01   1.00800           0
      7760 MEMB     58       PA       C112     cD      -0.276330E-01   12.0100           0
      7761 MEMB     58       PA       H12R     hL       0.113680E-01   1.00800           0
      7762 MEMB     58       PA       H12S     hL       0.113680E-01   1.00800           0
      7763 MEMB     58       PA       C111     cD      -0.252060E-01   12.0100           0
      7764 MEMB     58       PA       H11R     hL       0.143340E-01   1.00800           0
      7765 MEMB     58       PA       H11S     hL       0.143340E-01   1.00800           0
      7766 MEMB     58       PA       C110     cD      -0.288310E-01   12.0100           0
      7767 MEMB     58       PA       H10R     hL       0.146910E-01   1.00800           0
      7768 MEMB     58       PA       H10S     hL       0.146910E-01   1.00800           0
      7769 MEMB     58       PA       C19      cD      -0.304720E-01   12.0100           0
      7770 MEMB     58       PA       H9R      hL       0.138970E-01   1.00800           0
      7771 MEMB     58       PA       H9S      hL       0.138970E-01   1.00800           0
      7772 MEMB     58       PA       C18      cD      -0.157930E-01   12.0100           0
      7773 MEMB     58       PA       H8R      hL       0.906700E-02   1.00800           0
      7774 MEMB     58       PA       H8S      hL       0.906700E-02   1.00800           0
      7775 MEMB     58       PA       C17      cD      -0.196300E-01   12.0100           0
      7776 MEMB     58       PA       H7R      hL       0.110410E-01   1.00800           0
      7777 MEMB     58       PA       H7S      hL       0.110410E-01   1.00800           0
      7778 MEMB     58       PA       C16      cD      -0.244270E-01   12.0100           0
      7779 MEMB     58       PA       H6R      hL       0.133340E-01   1.00800           0
      7780 MEMB     58       PA       H6S      hL       0.133340E-01   1.00800           0
      7781 MEMB     58       PA       C15      cD      -0.293870E-01   12.0100           0
      7782 MEMB     58       PA       H5R      hL       0.167630E-01   1.00800           0
      7783 MEMB     58       PA       H5S      hL       0.167630E-01   1.00800           0
      7784 MEMB     58       PA       C14      cD      -0.300990E-01   12.0100           0
      7785 MEMB     58       PA       H4R      hL       0.208770E-01   1.00800           0
      7786 MEMB     58       PA       H4S      hL       0.208770E-01   1.00800           0
      7787 MEMB     58       PA       C13      cD      -0.488200E-02   12.0100           0
      7788 MEMB     58       PA       H3R      hL       0.190070E-01   1.00800           0
      7789 MEMB     58       PA       H3S      hL       0.190070E-01   1.00800           0
      7790 MEMB     58       PA       C12      cD      -0.149259       12.0100           0
      7791 MEMB     58       PA       H2R      hL       0.473450E-01   1.00800           0
      7792 MEMB     58       PA       H2S      hL       0.473450E-01   1.00800           0
      7793 MEMB     58       PC       C11      cC       0.910403       12.0100           0
      7794 MEMB     58       PC       O12      oC      -0.671566       16.0000           0
      7795 MEMB     58       PC       O11      oS      -0.575489       16.0000           0
      7796 MEMB     58       PC       C1       cA       0.196939       12.0100           0
      7797 MEMB     58       PC       HR       hE       0.704690E-01   1.00800           0
      7798 MEMB     58       PC       HS       hE       0.704690E-01   1.00800           0
      7799 MEMB     58       PC       C2       cA       0.281242       12.0100           0
      7800 MEMB     58       PC       HX       hE       0.632530E-01   1.00800           0
      7801 MEMB     58       PC       C3       cA       0.174590E-01   12.0100           0
      7802 MEMB     58       PC       HA       hE       0.955910E-01   1.00800           0
      7803 MEMB     58       PC       HB       hE       0.955910E-01   1.00800           0
      7804 MEMB     58       PC       O31      oT      -0.509480       16.0000           0
      7805 MEMB     58       PC       P31      pA       1.339721       30.9700           0
      7806 MEMB     58       PC       O32      oT      -0.508176       16.0000           0
      7807 MEMB     58       PC       C31      cA       0.166801       12.0100           0
      7808 MEMB     58       PC       H1A      hE       0.785340E-01   1.00800           0
      7809 MEMB     58       PC       H1B      hE       0.785340E-01   1.00800           0
      7810 MEMB     58       PC       C32      cA      -0.170824       12.0100           0
      7811 MEMB     58       PC       H2A      hX       0.136415       1.00800           0
      7812 MEMB     58       PC       H2B      hX       0.136415       1.00800           0
      7813 MEMB     58       PC       N31      nA       0.245262       14.0100           0
      7814 MEMB     58       PC       C33      cA      -0.338973       12.0100           0
      7815 MEMB     58       PC       H3A      hX       0.172230       1.00800           0
      7816 MEMB     58       PC       H3B      hX       0.172230       1.00800           0
      7817 MEMB     58       PC       H3C      hX       0.172230       1.00800           0
      7818 MEMB     58       PC       C34      cA      -0.338973       12.0100           0
      7819 MEMB     58       PC       H4A      hX       0.172230       1.00800           0
      7820 MEMB     58       PC       H4B      hX       0.172230       1.00800           0
      7821 MEMB     58       PC       H4C      hX       0.172230       1.00800           0
      7822 MEMB     58       PC       C35      cA      -0.338973       12.0100           0
      7823 MEMB     58       PC       H5A      hX       0.172230       1.00800           0
      7824 MEMB     58       PC       H5B      hX       0.172230       1.00800           0
      7825 MEMB     58       PC       H5C      hX       0.172230       1.00800           0
      7826 MEMB     58       PC       O33      oP      -0.875812       16.0000           0
      7827 MEMB     58       PC       O34      oP      -0.875812       16.0000           0
      7828 MEMB     58       PC       O21      oS      -0.552948       16.0000           0
      7829 MEMB     58       PC       C21      cC       0.897613       12.0100           0
      7830 MEMB     58       PC       O22      oC      -0.673755       16.0000           0
      7831 MEMB     58       OL       C12      cD      -0.143418       12.0100           0
      7832 MEMB     58       OL       H2R      hL       0.428610E-01   1.00800           0
      7833 MEMB     58       OL       H2S      hL       0.428610E-01   1.00800           0
      7834 MEMB     58       OL       C13      cD       0.161900E-02   12.0100           0
      7835 MEMB     58       OL       H3R      hL       0.195290E-01   1.00800           0
      7836 MEMB     58       OL       H3S      hL       0.195290E-01   1.00800           0
      7837 MEMB     58       OL       C14      cD      -0.229600E-01   12.0100           0
      7838 MEMB     58       OL       H4R      hL       0.181340E-01   1.00800           0
      7839 MEMB     58       OL       H4S      hL       0.181340E-01   1.00800           0
      7840 MEMB     58       OL       C15      cD      -0.166920E-01   12.0100           0
      7841 MEMB     58       OL       H5R      hL       0.869000E-02   1.00800           0
      7842 MEMB     58       OL       H5S      hL       0.869000E-02   1.00800           0
      7843 MEMB     58       OL       C16      cD      -0.237890E-01   12.0100           0
      7844 MEMB     58       OL       H6R      hL       0.926600E-02   1.00800           0
      7845 MEMB     58       OL       H6S      hL       0.926600E-02   1.00800           0
      7846 MEMB     58       OL       C17      cD      -0.174950E-01   12.0100           0
      7847 MEMB     58       OL       H7R      hL       0.195980E-01   1.00800           0
      7848 MEMB     58       OL       H7S      hL       0.195980E-01   1.00800           0
      7849 MEMB     58       OL       C18      cD       0.317750E-01   12.0100           0
      7850 MEMB     58       OL       H8R      hL       0.326850E-01   1.00800           0
      7851 MEMB     58       OL       H8S      hL       0.326850E-01   1.00800           0
      7852 MEMB     58       OL       C19      cB      -0.244228       12.0100           0
      7853 MEMB     58       OL       H9R      hB       0.131512       1.00800           0
      7854 MEMB     58       OL       C110     cB      -0.239284       12.0100           0
      7855 MEMB     58       OL       H10R     hB       0.126878       1.00800           0
      7856 MEMB     58       OL       C111     cD       0.290590E-01   12.0100           0
      7857 MEMB     58       OL       H11R     hL       0.335310E-01   1.00800           0
      7858 MEMB     58       OL       H11S     hL       0.335310E-01   1.00800           0
      7859 MEMB     58       OL       C112     cD      -0.263530E-01   12.0100           0
      7860 MEMB     58       OL       H12R     hL       0.197170E-01   1.00800           0
      7861 MEMB     58       OL       H12S     hL       0.197170E-01   1.00800           0
      7862 MEMB     58       OL       C113     cD      -0.182570E-01   12.0100           0
      7863 MEMB     58       OL       H13R     hL       0.138000E-01   1.00800           0
      7864 MEMB     58       OL       H13S     hL       0.138000E-01   1.00800           0
      7865 MEMB     58       OL       C114     cD      -0.248490E-01   12.0100           0
      7866 MEMB     58       OL       H14R     hL       0.857200E-02   1.00800           0
      7867 MEMB     58       OL       H14S     hL       0.857200E-02   1.00800           0
      7868 MEMB     58       OL       C115     cD      -0.232470E-01   12.0100           0
      7869 MEMB     58       OL       H15R     hL       0.104030E-01   1.00800           0
      7870 MEMB     58       OL       H15S     hL       0.104030E-01   1.00800           0
      7871 MEMB     58       OL       C116     cD      -0.124880E-01   12.0100           0
      7872 MEMB     58       OL       H16R     hL       0.136590E-01   1.00800           0
      7873 MEMB     58       OL       H16S     hL       0.136590E-01   1.00800           0
      7874 MEMB     58       OL       C117     cD       0.868400E-02   12.0100           0
      7875 MEMB     58       OL       H17R     hL       0.100260E-01   1.00800           0
      7876 MEMB     58       OL       H17S     hL       0.100260E-01   1.00800           0
      7877 MEMB     58       OL       C118     cD      -0.117290       12.0100           0
      7878 MEMB     58       OL       H18R     hL       0.266270E-01   1.00800           0
      7879 MEMB     58       OL       H18S     hL       0.266270E-01   1.00800           0
      7880 MEMB     58       OL       H18T     hL       0.266270E-01   1.00800           0
      7881 MEMB     59       PA       C116     cD      -0.125447       12.0100           0
      7882 MEMB     59       PA       H16R     hL       0.290470E-01   1.00800           0
      7883 MEMB     59       PA       H16S     hL       0.290470E-01   1.00800           0
      7884 MEMB     59       PA       H16T     hL       0.290470E-01   1.00800           0
      7885 MEMB     59       PA       C115     cD       0.139750E-01   12.0100           0
      7886 MEMB     59       PA       H15R     hL       0.929200E-02   1.00800           0
      7887 MEMB     59       PA       H15S     hL       0.929200E-02   1.00800           0
      7888 MEMB     59       PA       C114     cD      -0.200860E-01   12.0100           0
      7889 MEMB     59       PA       H14R     hL       0.159290E-01   1.00800           0
      7890 MEMB     59       PA       H14S     hL       0.159290E-01   1.00800           0
      7891 MEMB     59       PA       C113     cD      -0.330960E-01   12.0100           0
      7892 MEMB     59       PA       H13R     hL       0.146210E-01   1.00800           0
      7893 MEMB     59       PA       H13S     hL       0.146210E-01   1.00800           0
      7894 MEMB     59       PA       C112     cD      -0.276330E-01   12.0100           0
      7895 MEMB     59       PA       H12R     hL       0.113680E-01   1.00800           0
      7896 MEMB     59       PA       H12S     hL       0.113680E-01   1.00800           0
      7897 MEMB     59       PA       C111     cD      -0.252060E-01   12.0100           0
      7898 MEMB     59       PA       H11R     hL       0.143340E-01   1.00800           0
      7899 MEMB     59       PA       H11S     hL       0.143340E-01   1.00800           0
      7900 MEMB     59       PA       C110     cD      -0.288310E-01   12.0100           0
      7901 MEMB     59       PA       H10R     hL       0.146910E-01   1.00800           0
      7902 MEMB     59       PA       H10S     hL       0.146910E-01   1.00800           0
      7903 MEMB     59       PA       C19      cD      -0.304720E-01   12.0100           0
      7904 MEMB     59       PA       H9R      hL       0.138970E-01   1.00800           0
      7905 MEMB     59       PA       H9S      hL       0.138970E-01   1.00800           0
      7906 MEMB     59       PA       C18      cD      -0.157930E-01   12.0100           0
      7907 MEMB     59       PA       H8R      hL       0.906700E-02   1.00800           0
      7908 MEMB     59       PA       H8S      hL       0.906700E-02   1.00800           0
      7909 MEMB     59       PA       C17      cD      -0.196300E-01   12.0100           0
      7910 MEMB     59       PA       H7R      hL       0.110410E-01   1.00800           0
      7911 MEMB     59       PA       H7S      hL       0.110410E-01   1.00800           0
      7912 MEMB     59       PA       C16      cD      -0.244270E-01   12.0100           0
      7913 MEMB     59       PA       H6R      hL       0.133340E-01   1.00800           0
      7914 MEMB     59       PA       H6S      hL       0.133340E-01   1.00800           0
      7915 MEMB     59       PA       C15      cD      -0.293870E-01   12.0100           0
      7916 MEMB     59       PA       H5R      hL       0.167630E-01   1.00800           0
      7917 MEMB     59       PA       H5S      hL       0.167630E-01   1.00800           0
      7918 MEMB     59       PA       C14      cD      -0.300990E-01   12.0100           0
      7919 MEMB     59       PA       H4R      hL       0.208770E-01   1.00800           0
      7920 MEMB     59       PA       H4S      hL       0.208770E-01   1.00800           0
      7921 MEMB     59       PA       C13      cD      -0.488200E-02   12.0100           0
      7922 MEMB     59       PA       H3R      hL       0.190070E-01   1.00800           0
      7923 MEMB     59       PA       H3S      hL       0.190070E-01   1.00800           0
      7924 MEMB     59       PA       C12      cD      -0.149259       12.0100           0
      7925 MEMB     59       PA       H2R      hL       0.473450E-01   1.00800           0
      7926 MEMB     59       PA       H2S      hL       0.473450E-01   1.00800           0
      7927 MEMB     59       PC       C11      cC       0.910403       12.0100           0
      7928 MEMB     59       PC       O12      oC      -0.671566       16.0000           0
      7929 MEMB     59       PC       O11      oS      -0.575489       16.0000           0
      7930 MEMB     59       PC       C1       cA       0.196939       12.0100           0
      7931 MEMB     59       PC       HR       hE       0.704690E-01   1.00800           0
      7932 MEMB     59       PC       HS       hE       0.704690E-01   1.00800           0
      7933 MEMB     59       PC       C2       cA       0.281242       12.0100           0
      7934 MEMB     59       PC       HX       hE       0.632530E-01   1.00800           0
      7935 MEMB     59       PC       C3       cA       0.174590E-01   12.0100           0
      7936 MEMB     59       PC       HA       hE       0.955910E-01   1.00800           0
      7937 MEMB     59       PC       HB       hE       0.955910E-01   1.00800           0
      7938 MEMB     59       PC       O31      oT      -0.509480       16.0000           0
      7939 MEMB     59       PC       P31      pA       1.339721       30.9700           0
      7940 MEMB     59       PC       O32      oT      -0.508176       16.0000           0
      7941 MEMB     59       PC       C31      cA       0.166801       12.0100           0
      7942 MEMB     59       PC       H1A      hE       0.785340E-01   1.00800           0
      7943 MEMB     59       PC       H1B      hE       0.785340E-01   1.00800           0
      7944 MEMB     59       PC       C32      cA      -0.170824       12.0100           0
      7945 MEMB     59       PC       H2A      hX       0.136415       1.00800           0
      7946 MEMB     59       PC       H2B      hX       0.136415       1.00800           0
      7947 MEMB     59       PC       N31      nA       0.245262       14.0100           0
      7948 MEMB     59       PC       C33      cA      -0.338973       12.0100           0
      7949 MEMB     59       PC       H3A      hX       0.172230       1.00800           0
      7950 MEMB     59       PC       H3B      hX       0.172230       1.00800           0
      7951 MEMB     59       PC       H3C      hX       0.172230       1.00800           0
      7952 MEMB     59       PC       C34      cA      -0.338973       12.0100           0
      7953 MEMB     59       PC       H4A      hX       0.172230       1.00800           0
      7954 MEMB     59       PC       H4B      hX       0.172230       1.00800           0
      7955 MEMB     59       PC       H4C      hX       0.172230       1.00800           0
      7956 MEMB     59       PC       C35      cA      -0.338973       12.0100           0
      7957 MEMB     59       PC       H5A      hX       0.172230       1.00800           0
      7958 MEMB     59       PC       H5B      hX       0.172230       1.00800           0
      7959 MEMB     59       PC       H5C      hX       0.172230       1.00800           0
      7960 MEMB     59       PC       O33      oP      -0.875812       16.0000           0
      7961 MEMB     59       PC       O34      oP      -0.875812       16.0000           0
      7962 MEMB     59       PC       O21      oS      -0.552948       16.0000           0
      7963 MEMB     59       PC       C21      cC       0.897613       12.0100           0
      7964 MEMB     59       PC       O22      oC      -0.673755       16.0000           0
      7965 MEMB     59       OL       C12      cD      -0.143418       12.0100           0
      7966 MEMB     59       OL       H2R      hL       0.428610E-01   1.00800           0
      7967 MEMB     59       OL       H2S      hL       0.428610E-01   1.00800           0
      7968 MEMB     59       OL       C13      cD       0.161900E-02   12.0100           0
      7969 MEMB     59       OL       H3R      hL       0.195290E-01   1.00800           0
      7970 MEMB     59       OL       H3S      hL       0.195290E-01   1.00800           0
      7971 MEMB     59       OL       C14      cD      -0.229600E-01   12.0100           0
      7972 MEMB     59       OL       H4R      hL       0.181340E-01   1.00800           0
      7973 MEMB     59       OL       H4S      hL       0.181340E-01   1.00800           0
      7974 MEMB     59       OL       C15      cD      -0.166920E-01   12.0100           0
      7975 MEMB     59       OL       H5R      hL       0.869000E-02   1.00800           0
      7976 MEMB     59       OL       H5S      hL       0.869000E-02   1.00800           0
      7977 MEMB     59       OL       C16      cD      -0.237890E-01   12.0100           0
      7978 MEMB     59       OL       H6R      hL       0.926600E-02   1.00800           0
      7979 MEMB     59       OL       H6S      hL       0.926600E-02   1.00800           0
      7980 MEMB     59       OL       C17      cD      -0.174950E-01   12.0100           0
      7981 MEMB     59       OL       H7R      hL       0.195980E-01   1.00800           0
      7982 MEMB     59       OL       H7S      hL       0.195980E-01   1.00800           0
      7983 MEMB     59       OL       C18      cD       0.317750E-01   12.0100           0
      7984 MEMB     59       OL       H8R      hL       0.326850E-01   1.00800           0
      7985 MEMB     59       OL       H8S      hL       0.326850E-01   1.00800           0
      7986 MEMB     59       OL       C19      cB      -0.244228       12.0100           0
      7987 MEMB     59       OL       H9R      hB       0.131512       1.00800           0
      7988 MEMB     59       OL       C110     cB      -0.239284       12.0100           0
      7989 MEMB     59       OL       H10R     hB       0.126878       1.00800           0
      7990 MEMB     59       OL       C111     cD       0.290590E-01   12.0100           0
      7991 MEMB     59       OL       H11R     hL       0.335310E-01   1.00800           0
      7992 MEMB     59       OL       H11S     hL       0.335310E-01   1.00800           0
      7993 MEMB     59       OL       C112     cD      -0.263530E-01   12.0100           0
      7994 MEMB     59       OL       H12R     hL       0.197170E-01   1.00800           0
      7995 MEMB     59       OL       H12S     hL       0.197170E-01   1.00800           0
      7996 MEMB     59       OL       C113     cD      -0.182570E-01   12.0100           0
      7997 MEMB     59       OL       H13R     hL       0.138000E-01   1.00800           0
      7998 MEMB     59       OL       H13S     hL       0.138000E-01   1.00800           0
      7999 MEMB     59       OL       C114     cD      -0.248490E-01   12.0100           0
      8000 MEMB     59       OL       H14R     hL       0.857200E-02   1.00800           0
      8001 MEMB     59       OL       H14S     hL       0.857200E-02   1.00800           0
      8002 MEMB     59       OL       C115     cD      -0.232470E-01   12.0100           0
      8003 MEMB     59       OL       H15R     hL       0.104030E-01   1.00800           0
      8004 MEMB     59       OL       H15S     hL       0.104030E-01   1.00800           0
      8005 MEMB     59       OL       C116     cD      -0.124880E-01   12.0100           0
      8006 MEMB     59       OL       H16R     hL       0.136590E-01   1.00800           0
      8007 MEMB     59       OL       H16S     hL       0.136590E-01   1.00800           0
      8008 MEMB     59       OL       C117     cD       0.868400E-02   12.0100           0
      8009 MEMB     59       OL       H17R     hL       0.100260E-01   1.00800           0
      8010 MEMB     59       OL       H17S     hL       0.100260E-01   1.00800           0
      8011 MEMB     59       OL       C118     cD      -0.117290       12.0100           0
      8012 MEMB     59       OL       H18R     hL       0.266270E-01   1.00800           0
      8013 MEMB     59       OL       H18S     hL       0.266270E-01   1.00800           0
      8014 MEMB     59       OL       H18T     hL       0.266270E-01   1.00800           0
      8015 MEMB     60       PA       C116     cD      -0.125447       12.0100           0
      8016 MEMB     60       PA       H16R     hL       0.290470E-01   1.00800           0
      8017 MEMB     60       PA       H16S     hL       0.290470E-01   1.00800           0
      8018 MEMB     60       PA       H16T     hL       0.290470E-01   1.00800           0
      8019 MEMB     60       PA       C115     cD       0.139750E-01   12.0100           0
      8020 MEMB     60       PA       H15R     hL       0.929200E-02   1.00800           0
      8021 MEMB     60       PA       H15S     hL       0.929200E-02   1.00800           0
      8022 MEMB     60       PA       C114     cD      -0.200860E-01   12.0100           0
      8023 MEMB     60       PA       H14R     hL       0.159290E-01   1.00800           0
      8024 MEMB     60       PA       H14S     hL       0.159290E-01   1.00800           0
      8025 MEMB     60       PA       C113     cD      -0.330960E-01   12.0100           0
      8026 MEMB     60       PA       H13R     hL       0.146210E-01   1.00800           0
      8027 MEMB     60       PA       H13S     hL       0.146210E-01   1.00800           0
      8028 MEMB     60       PA       C112     cD      -0.276330E-01   12.0100           0
      8029 MEMB     60       PA       H12R     hL       0.113680E-01   1.00800           0
      8030 MEMB     60       PA       H12S     hL       0.113680E-01   1.00800           0
      8031 MEMB     60       PA       C111     cD      -0.252060E-01   12.0100           0
      8032 MEMB     60       PA       H11R     hL       0.143340E-01   1.00800           0
      8033 MEMB     60       PA       H11S     hL       0.143340E-01   1.00800           0
      8034 MEMB     60       PA       C110     cD      -0.288310E-01   12.0100           0
      8035 MEMB     60       PA       H10R     hL       0.146910E-01   1.00800           0
      8036 MEMB     60       PA       H10S     hL       0.146910E-01   1.00800           0
      8037 MEMB     60       PA       C19      cD      -0.304720E-01   12.0100           0
      8038 MEMB     60       PA       H9R      hL       0.138970E-01   1.00800           0
      8039 MEMB     60       PA       H9S      hL       0.138970E-01   1.00800           0
      8040 MEMB     60       PA       C18      cD      -0.157930E-01   12.0100           0
      8041 MEMB     60       PA       H8R      hL       0.906700E-02   1.00800           0
      8042 MEMB     60       PA       H8S      hL       0.906700E-02   1.00800           0
      8043 MEMB     60       PA       C17      cD      -0.196300E-01   12.0100           0
      8044 MEMB     60       PA       H7R      hL       0.110410E-01   1.00800           0
      8045 MEMB     60       PA       H7S      hL       0.110410E-01   1.00800           0
      8046 MEMB     60       PA       C16      cD      -0.244270E-01   12.0100           0
      8047 MEMB     60       PA       H6R      hL       0.133340E-01   1.00800           0
      8048 MEMB     60       PA       H6S      hL       0.133340E-01   1.00800           0
      8049 MEMB     60       PA       C15      cD      -0.293870E-01   12.0100           0
      8050 MEMB     60       PA       H5R      hL       0.167630E-01   1.00800           0
      8051 MEMB     60       PA       H5S      hL       0.167630E-01   1.00800           0
      8052 MEMB     60       PA       C14      cD      -0.300990E-01   12.0100           0
      8053 MEMB     60       PA       H4R      hL       0.208770E-01   1.00800           0
      8054 MEMB     60       PA       H4S      hL       0.208770E-01   1.00800           0
      8055 MEMB     60       PA       C13      cD      -0.488200E-02   12.0100           0
      8056 MEMB     60       PA       H3R      hL       0.190070E-01   1.00800           0
      8057 MEMB     60       PA       H3S      hL       0.190070E-01   1.00800           0
      8058 MEMB     60       PA       C12      cD      -0.149259       12.0100           0
      8059 MEMB     60       PA       H2R      hL       0.473450E-01   1.00800           0
      8060 MEMB     60       PA       H2S      hL       0.473450E-01   1.00800           0
      8061 MEMB     60       PC       C11      cC       0.910403       12.0100           0
      8062 MEMB     60       PC       O12      oC      -0.671566       16.0000           0
      8063 MEMB     60       PC       O11      oS      -0.575489       16.0000           0
      8064 MEMB     60       PC       C1       cA       0.196939       12.0100           0
      8065 MEMB     60       PC       HR       hE       0.704690E-01   1.00800           0
      8066 MEMB     60       PC       HS       hE       0.704690E-01   1.00800           0
      8067 MEMB     60       PC       C2       cA       0.281242       12.0100           0
      8068 MEMB     60       PC       HX       hE       0.632530E-01   1.00800           0
      8069 MEMB     60       PC       C3       cA       0.174590E-01   12.0100           0
      8070 MEMB     60       PC       HA       hE       0.955910E-01   1.00800           0
      8071 MEMB     60       PC       HB       hE       0.955910E-01   1.00800           0
      8072 MEMB     60       PC       O31      oT      -0.509480       16.0000           0
      8073 MEMB     60       PC       P31      pA       1.339721       30.9700           0
      8074 MEMB     60       PC       O32      oT      -0.508176       16.0000           0
      8075 MEMB     60       PC       C31      cA       0.166801       12.0100           0
      8076 MEMB     60       PC       H1A      hE       0.785340E-01   1.00800           0
      8077 MEMB     60       PC       H1B      hE       0.785340E-01   1.00800           0
      8078 MEMB     60       PC       C32      cA      -0.170824       12.0100           0
      8079 MEMB     60       PC       H2A      hX       0.136415       1.00800           0
      8080 MEMB     60       PC       H2B      hX       0.136415       1.00800           0
      8081 MEMB     60       PC       N31      nA       0.245262       14.0100           0
      8082 MEMB     60       PC       C33      cA      -0.338973       12.0100           0
      8083 MEMB     60       PC       H3A      hX       0.172230       1.00800           0
      8084 MEMB     60       PC       H3B      hX       0.172230       1.00800           0
      8085 MEMB     60       PC       H3C      hX       0.172230       1.00800           0
      8086 MEMB     60       PC       C34      cA      -0.338973       12.0100           0
      8087 MEMB     60       PC       H4A      hX       0.172230       1.00800           0
      8088 MEMB     60       PC       H4B      hX       0.172230       1.00800           0
      8089 MEMB     60       PC       H4C      hX       0.172230       1.00800           0
      8090 MEMB     60       PC       C35      cA      -0.338973       12.0100           0
      8091 MEMB     60       PC       H5A      hX       0.172230       1.00800           0
      8092 MEMB     60       PC       H5B      hX       0.172230       1.00800           0
      8093 MEMB     60       PC       H5C      hX       0.172230       1.00800           0
      8094 MEMB     60       PC       O33      oP      -0.875812       16.0000           0
      8095 MEMB     60       PC       O34      oP      -0.875812       16.0000           0
      8096 MEMB     60       PC       O21      oS      -0.552948       16.0000           0
      8097 MEMB     60       PC       C21      cC       0.897613       12.0100           0
      8098 MEMB     60       PC       O22      oC      -0.673755       16.0000           0
      8099 MEMB     60       OL       C12      cD      -0.143418       12.0100           0
      8100 MEMB     60       OL       H2R      hL       0.428610E-01   1.00800           0
      8101 MEMB     60       OL       H2S      hL       0.428610E-01   1.00800           0
      8102 MEMB     60       OL       C13      cD       0.161900E-02   12.0100           0
      8103 MEMB     60       OL       H3R      hL       0.195290E-01   1.00800           0
      8104 MEMB     60       OL       H3S      hL       0.195290E-01   1.00800           0
      8105 MEMB     60       OL       C14      cD      -0.229600E-01   12.0100           0
      8106 MEMB     60       OL       H4R      hL       0.181340E-01   1.00800           0
      8107 MEMB     60       OL       H4S      hL       0.181340E-01   1.00800           0
      8108 MEMB     60       OL       C15      cD      -0.166920E-01   12.0100           0
      8109 MEMB     60       OL       H5R      hL       0.869000E-02   1.00800           0
      8110 MEMB     60       OL       H5S      hL       0.869000E-02   1.00800           0
      8111 MEMB     60       OL       C16      cD      -0.237890E-01   12.0100           0
      8112 MEMB     60       OL       H6R      hL       0.926600E-02   1.00800           0
      8113 MEMB     60       OL       H6S      hL       0.926600E-02   1.00800           0
      8114 MEMB     60       OL       C17      cD      -0.174950E-01   12.0100           0
      8115 MEMB     60       OL       H7R      hL       0.195980E-01   1.00800           0
      8116 MEMB     60       OL       H7S      hL       0.195980E-01   1.00800           0
      8117 MEMB     60       OL       C18      cD       0.317750E-01   12.0100           0
      8118 MEMB     60       OL       H8R      hL       0.326850E-01   1.00800           0
      8119 MEMB     60       OL       H8S      hL       0.326850E-01   1.00800           0
      8120 MEMB     60       OL       C19      cB      -0.244228       12.0100           0
      8121 MEMB     60       OL       H9R      hB       0.131512       1.00800           0
      8122 MEMB     60       OL       C110     cB      -0.239284       12.0100           0
      8123 MEMB     60       OL       H10R     hB       0.126878       1.00800           0
      8124 MEMB     60       OL       C111     cD       0.290590E-01   12.0100           0
      8125 MEMB     60       OL       H11R     hL       0.335310E-01   1.00800           0
      8126 MEMB     60       OL       H11S     hL       0.335310E-01   1.00800           0
      8127 MEMB     60       OL       C112     cD      -0.263530E-01   12.0100           0
      8128 MEMB     60       OL       H12R     hL       0.197170E-01   1.00800           0
      8129 MEMB     60       OL       H12S     hL       0.197170E-01   1.00800           0
      8130 MEMB     60       OL       C113     cD      -0.182570E-01   12.0100           0
      8131 MEMB     60       OL       H13R     hL       0.138000E-01   1.00800           0
      8132 MEMB     60       OL       H13S     hL       0.138000E-01   1.00800           0
      8133 MEMB     60       OL       C114     cD      -0.248490E-01   12.0100           0
      8134 MEMB     60       OL       H14R     hL       0.857200E-02   1.00800           0
      8135 MEMB     60       OL       H14S     hL       0.857200E-02   1.00800           0
      8136 MEMB     60       OL       C115     cD      -0.232470E-01   12.0100           0
      8137 MEMB     60       OL       H15R     hL       0.104030E-01   1.00800           0
      8138 MEMB     60       OL       H15S     hL       0.104030E-01   1.00800           0
      8139 MEMB     60       OL       C116     cD      -0.124880E-01   12.0100           0
      8140 MEMB     60       OL       H16R     hL       0.136590E-01   1.00800           0
      8141 MEMB     60       OL       H16S     hL       0.136590E-01   1.00800           0
      8142 MEMB     60       OL       C117     cD       0.868400E-02   12.0100           0
      8143 MEMB     60       OL       H17R     hL       0.100260E-01   1.00800           0
      8144 MEMB     60       OL       H17S     hL       0.100260E-01   1.00800           0
      8145 MEMB     60       OL       C118     cD      -0.117290       12.0100           0
      8146 MEMB     60       OL       H18R     hL       0.266270E-01   1.00800           0
      8147 MEMB     60       OL       H18S     hL       0.266270E-01   1.00800           0
      8148 MEMB     60       OL       H18T     hL       0.266270E-01   1.00800           0
      8149 MEMB     61       PA       C116     cD      -0.125447       12.0100           0
      8150 MEMB     61       PA       H16R     hL       0.290470E-01   1.00800           0
      8151 MEMB     61       PA       H16S     hL       0.290470E-01   1.00800           0
      8152 MEMB     61       PA       H16T     hL       0.290470E-01   1.00800           0
      8153 MEMB     61       PA       C115     cD       0.139750E-01   12.0100           0
      8154 MEMB     61       PA       H15R     hL       0.929200E-02   1.00800           0
      8155 MEMB     61       PA       H15S     hL       0.929200E-02   1.00800           0
      8156 MEMB     61       PA       C114     cD      -0.200860E-01   12.0100           0
      8157 MEMB     61       PA       H14R     hL       0.159290E-01   1.00800           0
      8158 MEMB     61       PA       H14S     hL       0.159290E-01   1.00800           0
      8159 MEMB     61       PA       C113     cD      -0.330960E-01   12.0100           0
      8160 MEMB     61       PA       H13R     hL       0.146210E-01   1.00800           0
      8161 MEMB     61       PA       H13S     hL       0.146210E-01   1.00800           0
      8162 MEMB     61       PA       C112     cD      -0.276330E-01   12.0100           0
      8163 MEMB     61       PA       H12R     hL       0.113680E-01   1.00800           0
      8164 MEMB     61       PA       H12S     hL       0.113680E-01   1.00800           0
      8165 MEMB     61       PA       C111     cD      -0.252060E-01   12.0100           0
      8166 MEMB     61       PA       H11R     hL       0.143340E-01   1.00800           0
      8167 MEMB     61       PA       H11S     hL       0.143340E-01   1.00800           0
      8168 MEMB     61       PA       C110     cD      -0.288310E-01   12.0100           0
      8169 MEMB     61       PA       H10R     hL       0.146910E-01   1.00800           0
      8170 MEMB     61       PA       H10S     hL       0.146910E-01   1.00800           0
      8171 MEMB     61       PA       C19      cD      -0.304720E-01   12.0100           0
      8172 MEMB     61       PA       H9R      hL       0.138970E-01   1.00800           0
      8173 MEMB     61       PA       H9S      hL       0.138970E-01   1.00800           0
      8174 MEMB     61       PA       C18      cD      -0.157930E-01   12.0100           0
      8175 MEMB     61       PA       H8R      hL       0.906700E-02   1.00800           0
      8176 MEMB     61       PA       H8S      hL       0.906700E-02   1.00800           0
      8177 MEMB     61       PA       C17      cD      -0.196300E-01   12.0100           0
      8178 MEMB     61       PA       H7R      hL       0.110410E-01   1.00800           0
      8179 MEMB     61       PA       H7S      hL       0.110410E-01   1.00800           0
      8180 MEMB     61       PA       C16      cD      -0.244270E-01   12.0100           0
      8181 MEMB     61       PA       H6R      hL       0.133340E-01   1.00800           0
      8182 MEMB     61       PA       H6S      hL       0.133340E-01   1.00800           0
      8183 MEMB     61       PA       C15      cD      -0.293870E-01   12.0100           0
      8184 MEMB     61       PA       H5R      hL       0.167630E-01   1.00800           0
      8185 MEMB     61       PA       H5S      hL       0.167630E-01   1.00800           0
      8186 MEMB     61       PA       C14      cD      -0.300990E-01   12.0100           0
      8187 MEMB     61       PA       H4R      hL       0.208770E-01   1.00800           0
      8188 MEMB     61       PA       H4S      hL       0.208770E-01   1.00800           0
      8189 MEMB     61       PA       C13      cD      -0.488200E-02   12.0100           0
      8190 MEMB     61       PA       H3R      hL       0.190070E-01   1.00800           0
      8191 MEMB     61       PA       H3S      hL       0.190070E-01   1.00800           0
      8192 MEMB     61       PA       C12      cD      -0.149259       12.0100           0
      8193 MEMB     61       PA       H2R      hL       0.473450E-01   1.00800           0
      8194 MEMB     61       PA       H2S      hL       0.473450E-01   1.00800           0
      8195 MEMB     61       PC       C11      cC       0.910403       12.0100           0
      8196 MEMB     61       PC       O12      oC      -0.671566       16.0000           0
      8197 MEMB     61       PC       O11      oS      -0.575489       16.0000           0
      8198 MEMB     61       PC       C1       cA       0.196939       12.0100           0
      8199 MEMB     61       PC       HR       hE       0.704690E-01   1.00800           0
      8200 MEMB     61       PC       HS       hE       0.704690E-01   1.00800           0
      8201 MEMB     61       PC       C2       cA       0.281242       12.0100           0
      8202 MEMB     61       PC       HX       hE       0.632530E-01   1.00800           0
      8203 MEMB     61       PC       C3       cA       0.174590E-01   12.0100           0
      8204 MEMB     61       PC       HA       hE       0.955910E-01   1.00800           0
      8205 MEMB     61       PC       HB       hE       0.955910E-01   1.00800           0
      8206 MEMB     61       PC       O31      oT      -0.509480       16.0000           0
      8207 MEMB     61       PC       P31      pA       1.339721       30.9700           0
      8208 MEMB     61       PC       O32      oT      -0.508176       16.0000           0
      8209 MEMB     61       PC       C31      cA       0.166801       12.0100           0
      8210 MEMB     61       PC       H1A      hE       0.785340E-01   1.00800           0
      8211 MEMB     61       PC       H1B      hE       0.785340E-01   1.00800           0
      8212 MEMB     61       PC       C32      cA      -0.170824       12.0100           0
      8213 MEMB     61       PC       H2A      hX       0.136415       1.00800           0
      8214 MEMB     61       PC       H2B      hX       0.136415       1.00800           0
      8215 MEMB     61       PC       N31      nA       0.245262       14.0100           0
      8216 MEMB     61       PC       C33      cA      -0.338973       12.0100           0
      8217 MEMB     61       PC       H3A      hX       0.172230       1.00800           0
      8218 MEMB     61       PC       H3B      hX       0.172230       1.00800           0
      8219 MEMB     61       PC       H3C      hX       0.172230       1.00800           0
      8220 MEMB     61       PC       C34      cA      -0.338973       12.0100           0
      8221 MEMB     61       PC       H4A      hX       0.172230       1.00800           0
      8222 MEMB     61       PC       H4B      hX       0.172230       1.00800           0
      8223 MEMB     61       PC       H4C      hX       0.172230       1.00800           0
      8224 MEMB     61       PC       C35      cA      -0.338973       12.0100           0
      8225 MEMB     61       PC       H5A      hX       0.172230       1.00800           0
      8226 MEMB     61       PC       H5B      hX       0.172230       1.00800           0
      8227 MEMB     61       PC       H5C      hX       0.172230       1.00800           0
      8228 MEMB     61       PC       O33      oP      -0.875812       16.0000           0
      8229 MEMB     61       PC       O34      oP      -0.875812       16.0000           0
      8230 MEMB     61       PC       O21      oS      -0.552948       16.0000           0
      8231 MEMB     61       PC       C21      cC       0.897613       12.0100           0
      8232 MEMB     61       PC       O22      oC      -0.673755       16.0000           0
      8233 MEMB     61       OL       C12      cD      -0.143418       12.0100           0
      8234 MEMB     61       OL       H2R      hL       0.428610E-01   1.00800           0
      8235 MEMB     61       OL       H2S      hL       0.428610E-01   1.00800           0
      8236 MEMB     61       OL       C13      cD       0.161900E-02   12.0100           0
      8237 MEMB     61       OL       H3R      hL       0.195290E-01   1.00800           0
      8238 MEMB     61       OL       H3S      hL       0.195290E-01   1.00800           0
      8239 MEMB     61       OL       C14      cD      -0.229600E-01   12.0100           0
      8240 MEMB     61       OL       H4R      hL       0.181340E-01   1.00800           0
      8241 MEMB     61       OL       H4S      hL       0.181340E-01   1.00800           0
      8242 MEMB     61       OL       C15      cD      -0.166920E-01   12.0100           0
      8243 MEMB     61       OL       H5R      hL       0.869000E-02   1.00800           0
      8244 MEMB     61       OL       H5S      hL       0.869000E-02   1.00800           0
      8245 MEMB     61       OL       C16      cD      -0.237890E-01   12.0100           0
      8246 MEMB     61       OL       H6R      hL       0.926600E-02   1.00800           0
      8247 MEMB     61       OL       H6S      hL       0.926600E-02   1.00800           0
      8248 MEMB     61       OL       C17      cD      -0.174950E-01   12.0100           0
      8249 MEMB     61       OL       H7R      hL       0.195980E-01   1.00800           0
      8250 MEMB     61       OL       H7S      hL       0.195980E-01   1.00800           0
      8251 MEMB     61       OL       C18      cD       0.317750E-01   12.0100           0
      8252 MEMB     61       OL       H8R      hL       0.326850E-01   1.00800           0
      8253 MEMB     61       OL       H8S      hL       0.326850E-01   1.00800           0
      8254 MEMB     61       OL       C19      cB      -0.244228       12.0100           0
      8255 MEMB     61       OL       H9R      hB       0.131512       1.00800           0
      8256 MEMB     61       OL       C110     cB      -0.239284       12.0100           0
      8257 MEMB     61       OL       H10R     hB       0.126878       1.00800           0
      8258 MEMB     61       OL       C111     cD       0.290590E-01   12.0100           0
      8259 MEMB     61       OL       H11R     hL       0.335310E-01   1.00800           0
      8260 MEMB     61       OL       H11S     hL       0.335310E-01   1.00800           0
      8261 MEMB     61       OL       C112     cD      -0.263530E-01   12.0100           0
      8262 MEMB     61       OL       H12R     hL       0.197170E-01   1.00800           0
      8263 MEMB     61       OL       H12S     hL       0.197170E-01   1.00800           0
      8264 MEMB     61       OL       C113     cD      -0.182570E-01   12.0100           0
      8265 MEMB     61       OL       H13R     hL       0.138000E-01   1.00800           0
      8266 MEMB     61       OL       H13S     hL       0.138000E-01   1.00800           0
      8267 MEMB     61       OL       C114     cD      -0.248490E-01   12.0100           0
      8268 MEMB     61       OL       H14R     hL       0.857200E-02   1.00800           0
      8269 MEMB     61       OL       H14S     hL       0.857200E-02   1.00800           0
      8270 MEMB     61       OL       C115     cD      -0.232470E-01   12.0100           0
      8271 MEMB     61       OL       H15R     hL       0.104030E-01   1.00800           0
      8272 MEMB     61       OL       H15S     hL       0.104030E-01   1.00800           0
      8273 MEMB     61       OL       C116     cD      -0.124880E-01   12.0100           0
      8274 MEMB     61       OL       H16R     hL       0.136590E-01   1.00800           0
      8275 MEMB     61       OL       H16S     hL       0.136590E-01   1.00800           0
      8276 MEMB     61       OL       C117     cD       0.868400E-02   12.0100           0
      8277 MEMB     61       OL       H17R     hL       0.100260E-01   1.00800           0
      8278 MEMB     61       OL       H17S     hL       0.100260E-01   1.00800           0
      8279 MEMB     61       OL       C118     cD      -0.117290       12.0100           0
      8280 MEMB     61       OL       H18R     hL       0.266270E-01   1.00800           0
      8281 MEMB     61       OL       H18S     hL       0.266270E-01   1.00800           0
      8282 MEMB     61       OL       H18T     hL       0.266270E-01   1.00800           0
      8283 MEMB     62       PA       C116     cD      -0.125447       12.0100           0
      8284 MEMB     62       PA       H16R     hL       0.290470E-01   1.00800           0
      8285 MEMB     62       PA       H16S     hL       0.290470E-01   1.00800           0
      8286 MEMB     62       PA       H16T     hL       0.290470E-01   1.00800           0
      8287 MEMB     62       PA       C115     cD       0.139750E-01   12.0100           0
      8288 MEMB     62       PA       H15R     hL       0.929200E-02   1.00800           0
      8289 MEMB     62       PA       H15S     hL       0.929200E-02   1.00800           0
      8290 MEMB     62       PA       C114     cD      -0.200860E-01   12.0100           0
      8291 MEMB     62       PA       H14R     hL       0.159290E-01   1.00800           0
      8292 MEMB     62       PA       H14S     hL       0.159290E-01   1.00800           0
      8293 MEMB     62       PA       C113     cD      -0.330960E-01   12.0100           0
      8294 MEMB     62       PA       H13R     hL       0.146210E-01   1.00800           0
      8295 MEMB     62       PA       H13S     hL       0.146210E-01   1.00800           0
      8296 MEMB     62       PA       C112     cD      -0.276330E-01   12.0100           0
      8297 MEMB     62       PA       H12R     hL       0.113680E-01   1.00800           0
      8298 MEMB     62       PA       H12S     hL       0.113680E-01   1.00800           0
      8299 MEMB     62       PA       C111     cD      -0.252060E-01   12.0100           0
      8300 MEMB     62       PA       H11R     hL       0.143340E-01   1.00800           0
      8301 MEMB     62       PA       H11S     hL       0.143340E-01   1.00800           0
      8302 MEMB     62       PA       C110     cD      -0.288310E-01   12.0100           0
      8303 MEMB     62       PA       H10R     hL       0.146910E-01   1.00800           0
      8304 MEMB     62       PA       H10S     hL       0.146910E-01   1.00800           0
      8305 MEMB     62       PA       C19      cD      -0.304720E-01   12.0100           0
      8306 MEMB     62       PA       H9R      hL       0.138970E-01   1.00800           0
      8307 MEMB     62       PA       H9S      hL       0.138970E-01   1.00800           0
      8308 MEMB     62       PA       C18      cD      -0.157930E-01   12.0100           0
      8309 MEMB     62       PA       H8R      hL       0.906700E-02   1.00800           0
      8310 MEMB     62       PA       H8S      hL       0.906700E-02   1.00800           0
      8311 MEMB     62       PA       C17      cD      -0.196300E-01   12.0100           0
      8312 MEMB     62       PA       H7R      hL       0.110410E-01   1.00800           0
      8313 MEMB     62       PA       H7S      hL       0.110410E-01   1.00800           0
      8314 MEMB     62       PA       C16      cD      -0.244270E-01   12.0100           0
      8315 MEMB     62       PA       H6R      hL       0.133340E-01   1.00800           0
      8316 MEMB     62       PA       H6S      hL       0.133340E-01   1.00800           0
      8317 MEMB     62       PA       C15      cD      -0.293870E-01   12.0100           0
      8318 MEMB     62       PA       H5R      hL       0.167630E-01   1.00800           0
      8319 MEMB     62       PA       H5S      hL       0.167630E-01   1.00800           0
      8320 MEMB     62       PA       C14      cD      -0.300990E-01   12.0100           0
      8321 MEMB     62       PA       H4R      hL       0.208770E-01   1.00800           0
      8322 MEMB     62       PA       H4S      hL       0.208770E-01   1.00800           0
      8323 MEMB     62       PA       C13      cD      -0.488200E-02   12.0100           0
      8324 MEMB     62       PA       H3R      hL       0.190070E-01   1.00800           0
      8325 MEMB     62       PA       H3S      hL       0.190070E-01   1.00800           0
      8326 MEMB     62       PA       C12      cD      -0.149259       12.0100           0
      8327 MEMB     62       PA       H2R      hL       0.473450E-01   1.00800           0
      8328 MEMB     62       PA       H2S      hL       0.473450E-01   1.00800           0
      8329 MEMB     62       PC       C11      cC       0.910403       12.0100           0
      8330 MEMB     62       PC       O12      oC      -0.671566       16.0000           0
      8331 MEMB     62       PC       O11      oS      -0.575489       16.0000           0
      8332 MEMB     62       PC       C1       cA       0.196939       12.0100           0
      8333 MEMB     62       PC       HR       hE       0.704690E-01   1.00800           0
      8334 MEMB     62       PC       HS       hE       0.704690E-01   1.00800           0
      8335 MEMB     62       PC       C2       cA       0.281242       12.0100           0
      8336 MEMB     62       PC       HX       hE       0.632530E-01   1.00800           0
      8337 MEMB     62       PC       C3       cA       0.174590E-01   12.0100           0
      8338 MEMB     62       PC       HA       hE       0.955910E-01   1.00800           0
      8339 MEMB     62       PC       HB       hE       0.955910E-01   1.00800           0
      8340 MEMB     62       PC       O31      oT      -0.509480       16.0000           0
      8341 MEMB     62       PC       P31      pA       1.339721       30.9700           0
      8342 MEMB     62       PC       O32      oT      -0.508176       16.0000           0
      8343 MEMB     62       PC       C31      cA       0.166801       12.0100           0
      8344 MEMB     62       PC       H1A      hE       0.785340E-01   1.00800           0
      8345 MEMB     62       PC       H1B      hE       0.785340E-01   1.00800           0
      8346 MEMB     62       PC       C32      cA      -0.170824       12.0100           0
      8347 MEMB     62       PC       H2A      hX       0.136415       1.00800           0
      8348 MEMB     62       PC       H2B      hX       0.136415       1.00800           0
      8349 MEMB     62       PC       N31      nA       0.245262       14.0100           0
      8350 MEMB     62       PC       C33      cA      -0.338973       12.0100           0
      8351 MEMB     62       PC       H3A      hX       0.172230       1.00800           0
      8352 MEMB     62       PC       H3B      hX       0.172230       1.00800           0
      8353 MEMB     62       PC       H3C      hX       0.172230       1.00800           0
      8354 MEMB     62       PC       C34      cA      -0.338973       12.0100           0
      8355 MEMB     62       PC       H4A      hX       0.172230       1.00800           0
      8356 MEMB     62       PC       H4B      hX       0.172230       1.00800           0
      8357 MEMB     62       PC       H4C      hX       0.172230       1.00800           0
      8358 MEMB     62       PC       C35      cA      -0.338973       12.0100           0
      8359 MEMB     62       PC       H5A      hX       0.172230       1.00800           0
      8360 MEMB     62       PC       H5B      hX       0.172230       1.00800           0
      8361 MEMB     62       PC       H5C      hX       0.172230       1.00800           0
      8362 MEMB     62       PC       O33      oP      -0.875812       16.0000           0
      8363 MEMB     62       PC       O34      oP      -0.875812       16.0000           0
      8364 MEMB     62       PC       O21      oS      -0.552948       16.0000           0
      8365 MEMB     62       PC       C21      cC       0.897613       12.0100           0
      8366 MEMB     62       PC       O22      oC      -0.673755       16.0000           0
      8367 MEMB     62       OL       C12      cD      -0.143418       12.0100           0
      8368 MEMB     62       OL       H2R      hL       0.428610E-01   1.00800           0
      8369 MEMB     62       OL       H2S      hL       0.428610E-01   1.00800           0
      8370 MEMB     62       OL       C13      cD       0.161900E-02   12.0100           0
      8371 MEMB     62       OL       H3R      hL       0.195290E-01   1.00800           0
      8372 MEMB     62       OL       H3S      hL       0.195290E-01   1.00800           0
      8373 MEMB     62       OL       C14      cD      -0.229600E-01   12.0100           0
      8374 MEMB     62       OL       H4R      hL       0.181340E-01   1.00800           0
      8375 MEMB     62       OL       H4S      hL       0.181340E-01   1.00800           0
      8376 MEMB     62       OL       C15      cD      -0.166920E-01   12.0100           0
      8377 MEMB     62       OL       H5R      hL       0.869000E-02   1.00800           0
      8378 MEMB     62       OL       H5S      hL       0.869000E-02   1.00800           0
      8379 MEMB     62       OL       C16      cD      -0.237890E-01   12.0100           0
      8380 MEMB     62       OL       H6R      hL       0.926600E-02   1.00800           0
      8381 MEMB     62       OL       H6S      hL       0.926600E-02   1.00800           0
      8382 MEMB     62       OL       C17      cD      -0.174950E-01   12.0100           0
      8383 MEMB     62       OL       H7R      hL       0.195980E-01   1.00800           0
      8384 MEMB     62       OL       H7S      hL       0.195980E-01   1.00800           0
      8385 MEMB     62       OL       C18      cD       0.317750E-01   12.0100           0
      8386 MEMB     62       OL       H8R      hL       0.326850E-01   1.00800           0
      8387 MEMB     62       OL       H8S      hL       0.326850E-01   1.00800           0
      8388 MEMB     62       OL       C19      cB      -0.244228       12.0100           0
      8389 MEMB     62       OL       H9R      hB       0.131512       1.00800           0
      8390 MEMB     62       OL       C110     cB      -0.239284       12.0100           0
      8391 MEMB     62       OL       H10R     hB       0.126878       1.00800           0
      8392 MEMB     62       OL       C111     cD       0.290590E-01   12.0100           0
      8393 MEMB     62       OL       H11R     hL       0.335310E-01   1.00800           0
      8394 MEMB     62       OL       H11S     hL       0.335310E-01   1.00800           0
      8395 MEMB     62       OL       C112     cD      -0.263530E-01   12.0100           0
      8396 MEMB     62       OL       H12R     hL       0.197170E-01   1.00800           0
      8397 MEMB     62       OL       H12S     hL       0.197170E-01   1.00800           0
      8398 MEMB     62       OL       C113     cD      -0.182570E-01   12.0100           0
      8399 MEMB     62       OL       H13R     hL       0.138000E-01   1.00800           0
      8400 MEMB     62       OL       H13S     hL       0.138000E-01   1.00800           0
      8401 MEMB     62       OL       C114     cD      -0.248490E-01   12.0100           0
      8402 MEMB     62       OL       H14R     hL       0.857200E-02   1.00800           0
      8403 MEMB     62       OL       H14S     hL       0.857200E-02   1.00800           0
      8404 MEMB     62       OL       C115     cD      -0.232470E-01   12.0100           0
      8405 MEMB     62       OL       H15R     hL       0.104030E-01   1.00800           0
      8406 MEMB     62       OL       H15S     hL       0.104030E-01   1.00800           0
      8407 MEMB     62       OL       C116     cD      -0.124880E-01   12.0100           0
      8408 MEMB     62       OL       H16R     hL       0.136590E-01   1.00800           0
      8409 MEMB     62       OL       H16S     hL       0.136590E-01   1.00800           0
      8410 MEMB     62       OL       C117     cD       0.868400E-02   12.0100           0
      8411 MEMB     62       OL       H17R     hL       0.100260E-01   1.00800           0
      8412 MEMB     62       OL       H17S     hL       0.100260E-01   1.00800           0
      8413 MEMB     62       OL       C118     cD      -0.117290       12.0100           0
      8414 MEMB     62       OL       H18R     hL       0.266270E-01   1.00800           0
      8415 MEMB     62       OL       H18S     hL       0.266270E-01   1.00800           0
      8416 MEMB     62       OL       H18T     hL       0.266270E-01   1.00800           0
      8417 MEMB     63       PA       C116     cD      -0.125447       12.0100           0
      8418 MEMB     63       PA       H16R     hL       0.290470E-01   1.00800           0
      8419 MEMB     63       PA       H16S     hL       0.290470E-01   1.00800           0
      8420 MEMB     63       PA       H16T     hL       0.290470E-01   1.00800           0
      8421 MEMB     63       PA       C115     cD       0.139750E-01   12.0100           0
      8422 MEMB     63       PA       H15R     hL       0.929200E-02   1.00800           0
      8423 MEMB     63       PA       H15S     hL       0.929200E-02   1.00800           0
      8424 MEMB     63       PA       C114     cD      -0.200860E-01   12.0100           0
      8425 MEMB     63       PA       H14R     hL       0.159290E-01   1.00800           0
      8426 MEMB     63       PA       H14S     hL       0.159290E-01   1.00800           0
      8427 MEMB     63       PA       C113     cD      -0.330960E-01   12.0100           0
      8428 MEMB     63       PA       H13R     hL       0.146210E-01   1.00800           0
      8429 MEMB     63       PA       H13S     hL       0.146210E-01   1.00800           0
      8430 MEMB     63       PA       C112     cD      -0.276330E-01   12.0100           0
      8431 MEMB     63       PA       H12R     hL       0.113680E-01   1.00800           0
      8432 MEMB     63       PA       H12S     hL       0.113680E-01   1.00800           0
      8433 MEMB     63       PA       C111     cD      -0.252060E-01   12.0100           0
      8434 MEMB     63       PA       H11R     hL       0.143340E-01   1.00800           0
      8435 MEMB     63       PA       H11S     hL       0.143340E-01   1.00800           0
      8436 MEMB     63       PA       C110     cD      -0.288310E-01   12.0100           0
      8437 MEMB     63       PA       H10R     hL       0.146910E-01   1.00800           0
      8438 MEMB     63       PA       H10S     hL       0.146910E-01   1.00800           0
      8439 MEMB     63       PA       C19      cD      -0.304720E-01   12.0100           0
      8440 MEMB     63       PA       H9R      hL       0.138970E-01   1.00800           0
      8441 MEMB     63       PA       H9S      hL       0.138970E-01   1.00800           0
      8442 MEMB     63       PA       C18      cD      -0.157930E-01   12.0100           0
      8443 MEMB     63       PA       H8R      hL       0.906700E-02   1.00800           0
      8444 MEMB     63       PA       H8S      hL       0.906700E-02   1.00800           0
      8445 MEMB     63       PA       C17      cD      -0.196300E-01   12.0100           0
      8446 MEMB     63       PA       H7R      hL       0.110410E-01   1.00800           0
      8447 MEMB     63       PA       H7S      hL       0.110410E-01   1.00800           0
      8448 MEMB     63       PA       C16      cD      -0.244270E-01   12.0100           0
      8449 MEMB     63       PA       H6R      hL       0.133340E-01   1.00800           0
      8450 MEMB     63       PA       H6S      hL       0.133340E-01   1.00800           0
      8451 MEMB     63       PA       C15      cD      -0.293870E-01   12.0100           0
      8452 MEMB     63       PA       H5R      hL       0.167630E-01   1.00800           0
      8453 MEMB     63       PA       H5S      hL       0.167630E-01   1.00800           0
      8454 MEMB     63       PA       C14      cD      -0.300990E-01   12.0100           0
      8455 MEMB     63       PA       H4R      hL       0.208770E-01   1.00800           0
      8456 MEMB     63       PA       H4S      hL       0.208770E-01   1.00800           0
      8457 MEMB     63       PA       C13      cD      -0.488200E-02   12.0100           0
      8458 MEMB     63       PA       H3R      hL       0.190070E-01   1.00800           0
      8459 MEMB     63       PA       H3S      hL       0.190070E-01   1.00800           0
      8460 MEMB     63       PA       C12      cD      -0.149259       12.0100           0
      8461 MEMB     63       PA       H2R      hL       0.473450E-01   1.00800           0
      8462 MEMB     63       PA       H2S      hL       0.473450E-01   1.00800           0
      8463 MEMB     63       PC       C11      cC       0.910403       12.0100           0
      8464 MEMB     63       PC       O12      oC      -0.671566       16.0000           0
      8465 MEMB     63       PC       O11      oS      -0.575489       16.0000           0
      8466 MEMB     63       PC       C1       cA       0.196939       12.0100           0
      8467 MEMB     63       PC       HR       hE       0.704690E-01   1.00800           0
      8468 MEMB     63       PC       HS       hE       0.704690E-01   1.00800           0
      8469 MEMB     63       PC       C2       cA       0.281242       12.0100           0
      8470 MEMB     63       PC       HX       hE       0.632530E-01   1.00800           0
      8471 MEMB     63       PC       C3       cA       0.174590E-01   12.0100           0
      8472 MEMB     63       PC       HA       hE       0.955910E-01   1.00800           0
      8473 MEMB     63       PC       HB       hE       0.955910E-01   1.00800           0
      8474 MEMB     63       PC       O31      oT      -0.509480       16.0000           0
      8475 MEMB     63       PC       P31      pA       1.339721       30.9700           0
      8476 MEMB     63       PC       O32      oT      -0.508176       16.0000           0
      8477 MEMB     63       PC       C31      cA       0.166801       12.0100           0
      8478 MEMB     63       PC       H1A      hE       0.785340E-01   1.00800           0
      8479 MEMB     63       PC       H1B      hE       0.785340E-01   1.00800           0
      8480 MEMB     63       PC       C32      cA      -0.170824       12.0100           0
      8481 MEMB     63       PC       H2A      hX       0.136415       1.00800           0
      8482 MEMB     63       PC       H2B      hX       0.136415       1.00800           0
      8483 MEMB     63       PC       N31      nA       0.245262       14.0100           0
      8484 MEMB     63       PC       C33      cA      -0.338973       12.0100           0
      8485 MEMB     63       PC       H3A      hX       0.172230       1.00800           0
      8486 MEMB     63       PC       H3B      hX       0.172230       1.00800           0
      8487 MEMB     63       PC       H3C      hX       0.172230       1.00800           0
      8488 MEMB     63       PC       C34      cA      -0.338973       12.0100           0
      8489 MEMB     63       PC       H4A      hX       0.172230       1.00800           0
      8490 MEMB     63       PC       H4B      hX       0.172230       1.00800           0
      8491 MEMB     63       PC       H4C      hX       0.172230       1.00800           0
      8492 MEMB     63       PC       C35      cA      -0.338973       12.0100           0
      8493 MEMB     63       PC       H5A      hX       0.172230       1.00800           0
      8494 MEMB     63       PC       H5B      hX       0.172230       1.00800           0
      8495 MEMB     63       PC       H5C      hX       0.172230       1.00800           0
      8496 MEMB     63       PC       O33      oP      -0.875812       16.0000           0
      8497 MEMB     63       PC       O34      oP      -0.875812       16.0000           0
      8498 MEMB     63       PC       O21      oS      -0.552948       16.0000           0
      8499 MEMB     63       PC       C21      cC       0.897613       12.0100           0
      8500 MEMB     63       PC       O22      oC      -0.673755       16.0000           0
      8501 MEMB     63       OL       C12      cD      -0.143418       12.0100           0
      8502 MEMB     63       OL       H2R      hL       0.428610E-01   1.00800           0
      8503 MEMB     63       OL       H2S      hL       0.428610E-01   1.00800           0
      8504 MEMB     63       OL       C13      cD       0.161900E-02   12.0100           0
      8505 MEMB     63       OL       H3R      hL       0.195290E-01   1.00800           0
      8506 MEMB     63       OL       H3S      hL       0.195290E-01   1.00800           0
      8507 MEMB     63       OL       C14      cD      -0.229600E-01   12.0100           0
      8508 MEMB     63       OL       H4R      hL       0.181340E-01   1.00800           0
      8509 MEMB     63       OL       H4S      hL       0.181340E-01   1.00800           0
      8510 MEMB     63       OL       C15      cD      -0.166920E-01   12.0100           0
      8511 MEMB     63       OL       H5R      hL       0.869000E-02   1.00800           0
      8512 MEMB     63       OL       H5S      hL       0.869000E-02   1.00800           0
      8513 MEMB     63       OL       C16      cD      -0.237890E-01   12.0100           0
      8514 MEMB     63       OL       H6R      hL       0.926600E-02   1.00800           0
      8515 MEMB     63       OL       H6S      hL       0.926600E-02   1.00800           0
      8516 MEMB     63       OL       C17      cD      -0.174950E-01   12.0100           0
      8517 MEMB     63       OL       H7R      hL       0.195980E-01   1.00800           0
      8518 MEMB     63       OL       H7S      hL       0.195980E-01   1.00800           0
      8519 MEMB     63       OL       C18      cD       0.317750E-01   12.0100           0
      8520 MEMB     63       OL       H8R      hL       0.326850E-01   1.00800           0
      8521 MEMB     63       OL       H8S      hL       0.326850E-01   1.00800           0
      8522 MEMB     63       OL       C19      cB      -0.244228       12.0100           0
      8523 MEMB     63       OL       H9R      hB       0.131512       1.00800           0
      8524 MEMB     63       OL       C110     cB      -0.239284       12.0100           0
      8525 MEMB     63       OL       H10R     hB       0.126878       1.00800           0
      8526 MEMB     63       OL       C111     cD       0.290590E-01   12.0100           0
      8527 MEMB     63       OL       H11R     hL       0.335310E-01   1.00800           0
      8528 MEMB     63       OL       H11S     hL       0.335310E-01   1.00800           0
      8529 MEMB     63       OL       C112     cD      -0.263530E-01   12.0100           0
      8530 MEMB     63       OL       H12R     hL       0.197170E-01   1.00800           0
      8531 MEMB     63       OL       H12S     hL       0.197170E-01   1.00800           0
      8532 MEMB     63       OL       C113     cD      -0.182570E-01   12.0100           0
      8533 MEMB     63       OL       H13R     hL       0.138000E-01   1.00800           0
      8534 MEMB     63       OL       H13S     hL       0.138000E-01   1.00800           0
      8535 MEMB     63       OL       C114     cD      -0.248490E-01   12.0100           0
      8536 MEMB     63       OL       H14R     hL       0.857200E-02   1.00800           0
      8537 MEMB     63       OL       H14S     hL       0.857200E-02   1.00800           0
      8538 MEMB     63       OL       C115     cD      -0.232470E-01   12.0100           0
      8539 MEMB     63       OL       H15R     hL       0.104030E-01   1.00800           0
      8540 MEMB     63       OL       H15S     hL       0.104030E-01   1.00800           0
      8541 MEMB     63       OL       C116     cD      -0.124880E-01   12.0100           0
      8542 MEMB     63       OL       H16R     hL       0.136590E-01   1.00800           0
      8543 MEMB     63       OL       H16S     hL       0.136590E-01   1.00800           0
      8544 MEMB     63       OL       C117     cD       0.868400E-02   12.0100           0
      8545 MEMB     63       OL       H17R     hL       0.100260E-01   1.00800           0
      8546 MEMB     63       OL       H17S     hL       0.100260E-01   1.00800           0
      8547 MEMB     63       OL       C118     cD      -0.117290       12.0100           0
      8548 MEMB     63       OL       H18R     hL       0.266270E-01   1.00800           0
      8549 MEMB     63       OL       H18S     hL       0.266270E-01   1.00800           0
      8550 MEMB     63       OL       H18T     hL       0.266270E-01   1.00800           0
      8551 MEMB     64       PA       C116     cD      -0.125447       12.0100           0
      8552 MEMB     64       PA       H16R     hL       0.290470E-01   1.00800           0
      8553 MEMB     64       PA       H16S     hL       0.290470E-01   1.00800           0
      8554 MEMB     64       PA       H16T     hL       0.290470E-01   1.00800           0
      8555 MEMB     64       PA       C115     cD       0.139750E-01   12.0100           0
      8556 MEMB     64       PA       H15R     hL       0.929200E-02   1.00800           0
      8557 MEMB     64       PA       H15S     hL       0.929200E-02   1.00800           0
      8558 MEMB     64       PA       C114     cD      -0.200860E-01   12.0100           0
      8559 MEMB     64       PA       H14R     hL       0.159290E-01   1.00800           0
      8560 MEMB     64       PA       H14S     hL       0.159290E-01   1.00800           0
      8561 MEMB     64       PA       C113     cD      -0.330960E-01   12.0100           0
      8562 MEMB     64       PA       H13R     hL       0.146210E-01   1.00800           0
      8563 MEMB     64       PA       H13S     hL       0.146210E-01   1.00800           0
      8564 MEMB     64       PA       C112     cD      -0.276330E-01   12.0100           0
      8565 MEMB     64       PA       H12R     hL       0.113680E-01   1.00800           0
      8566 MEMB     64       PA       H12S     hL       0.113680E-01   1.00800           0
      8567 MEMB     64       PA       C111     cD      -0.252060E-01   12.0100           0
      8568 MEMB     64       PA       H11R     hL       0.143340E-01   1.00800           0
      8569 MEMB     64       PA       H11S     hL       0.143340E-01   1.00800           0
      8570 MEMB     64       PA       C110     cD      -0.288310E-01   12.0100           0
      8571 MEMB     64       PA       H10R     hL       0.146910E-01   1.00800           0
      8572 MEMB     64       PA       H10S     hL       0.146910E-01   1.00800           0
      8573 MEMB     64       PA       C19      cD      -0.304720E-01   12.0100           0
      8574 MEMB     64       PA       H9R      hL       0.138970E-01   1.00800           0
      8575 MEMB     64       PA       H9S      hL       0.138970E-01   1.00800           0
      8576 MEMB     64       PA       C18      cD      -0.157930E-01   12.0100           0
      8577 MEMB     64       PA       H8R      hL       0.906700E-02   1.00800           0
      8578 MEMB     64       PA       H8S      hL       0.906700E-02   1.00800           0
      8579 MEMB     64       PA       C17      cD      -0.196300E-01   12.0100           0
      8580 MEMB     64       PA       H7R      hL       0.110410E-01   1.00800           0
      8581 MEMB     64       PA       H7S      hL       0.110410E-01   1.00800           0
      8582 MEMB     64       PA       C16      cD      -0.244270E-01   12.0100           0
      8583 MEMB     64       PA       H6R      hL       0.133340E-01   1.00800           0
      8584 MEMB     64       PA       H6S      hL       0.133340E-01   1.00800           0
      8585 MEMB     64       PA       C15      cD      -0.293870E-01   12.0100           0
      8586 MEMB     64       PA       H5R      hL       0.167630E-01   1.00800           0
      8587 MEMB     64       PA       H5S      hL       0.167630E-01   1.00800           0
      8588 MEMB     64       PA       C14      cD      -0.300990E-01   12.0100           0
      8589 MEMB     64       PA       H4R      hL       0.208770E-01   1.00800           0
      8590 MEMB     64       PA       H4S      hL       0.208770E-01   1.00800           0
      8591 MEMB     64       PA       C13      cD      -0.488200E-02   12.0100           0
      8592 MEMB     64       PA       H3R      hL       0.190070E-01   1.00800           0
      8593 MEMB     64       PA       H3S      hL       0.190070E-01   1.00800           0
      8594 MEMB     64       PA       C12      cD      -0.149259       12.0100           0
      8595 MEMB     64       PA       H2R      hL       0.473450E-01   1.00800           0
      8596 MEMB     64       PA       H2S      hL       0.473450E-01   1.00800           0
      8597 MEMB     64       PC       C11      cC       0.910403       12.0100           0
      8598 MEMB     64       PC       O12      oC      -0.671566       16.0000           0
      8599 MEMB     64       PC       O11      oS      -0.575489       16.0000           0
      8600 MEMB     64       PC       C1       cA       0.196939       12.0100           0
      8601 MEMB     64       PC       HR       hE       0.704690E-01   1.00800           0
      8602 MEMB     64       PC       HS       hE       0.704690E-01   1.00800           0
      8603 MEMB     64       PC       C2       cA       0.281242       12.0100           0
      8604 MEMB     64       PC       HX       hE       0.632530E-01   1.00800           0
      8605 MEMB     64       PC       C3       cA       0.174590E-01   12.0100           0
      8606 MEMB     64       PC       HA       hE       0.955910E-01   1.00800           0
      8607 MEMB     64       PC       HB       hE       0.955910E-01   1.00800           0
      8608 MEMB     64       PC       O31      oT      -0.509480       16.0000           0
      8609 MEMB     64       PC       P31      pA       1.339721       30.9700           0
      8610 MEMB     64       PC       O32      oT      -0.508176       16.0000           0
      8611 MEMB     64       PC       C31      cA       0.166801       12.0100           0
      8612 MEMB     64       PC       H1A      hE       0.785340E-01   1.00800           0
      8613 MEMB     64       PC       H1B      hE       0.785340E-01   1.00800           0
      8614 MEMB     64       PC       C32      cA      -0.170824       12.0100           0
      8615 MEMB     64       PC       H2A      hX       0.136415       1.00800           0
      8616 MEMB     64       PC       H2B      hX       0.136415       1.00800           0
      8617 MEMB     64       PC       N31      nA       0.245262       14.0100           0
      8618 MEMB     64       PC       C33      cA      -0.338973       12.0100           0
      8619 MEMB     64       PC       H3A      hX       0.172230       1.00800           0
      8620 MEMB     64       PC       H3B      hX       0.172230       1.00800           0
      8621 MEMB     64       PC       H3C      hX       0.172230       1.00800           0
      8622 MEMB     64       PC       C34      cA      -0.338973       12.0100           0
      8623 MEMB     64       PC       H4A      hX       0.172230       1.00800           0
      8624 MEMB     64       PC       H4B      hX       0.172230       1.00800           0
      8625 MEMB     64       PC       H4C      hX       0.172230       1.00800           0
      8626 MEMB     64       PC       C35      cA      -0.338973       12.0100           0
      8627 MEMB     64       PC       H5A      hX       0.172230       1.00800           0
      8628 MEMB     64       PC       H5B      hX       0.172230       1.00800           0
      8629 MEMB     64       PC       H5C      hX       0.172230       1.00800           0
      8630 MEMB     64       PC       O33      oP      -0.875812       16.0000           0
      8631 MEMB     64       PC       O34      oP      -0.875812       16.0000           0
      8632 MEMB     64       PC       O21      oS      -0.552948       16.0000           0
      8633 MEMB     64       PC       C21      cC       0.897613       12.0100           0
      8634 MEMB     64       PC       O22      oC      -0.673755       16.0000           0
      8635 MEMB     64       OL       C12      cD      -0.143418       12.0100           0
      8636 MEMB     64       OL       H2R      hL       0.428610E-01   1.00800           0
      8637 MEMB     64       OL       H2S      hL       0.428610E-01   1.00800           0
      8638 MEMB     64       OL       C13      cD       0.161900E-02   12.0100           0
      8639 MEMB     64       OL       H3R      hL       0.195290E-01   1.00800           0
      8640 MEMB     64       OL       H3S      hL       0.195290E-01   1.00800           0
      8641 MEMB     64       OL       C14      cD      -0.229600E-01   12.0100           0
      8642 MEMB     64       OL       H4R      hL       0.181340E-01   1.00800           0
      8643 MEMB     64       OL       H4S      hL       0.181340E-01   1.00800           0
      8644 MEMB     64       OL       C15      cD      -0.166920E-01   12.0100           0
      8645 MEMB     64       OL       H5R      hL       0.869000E-02   1.00800           0
      8646 MEMB     64       OL       H5S      hL       0.869000E-02   1.00800           0
      8647 MEMB     64       OL       C16      cD      -0.237890E-01   12.0100           0
      8648 MEMB     64       OL       H6R      hL       0.926600E-02   1.00800           0
      8649 MEMB     64       OL       H6S      hL       0.926600E-02   1.00800           0
      8650 MEMB     64       OL       C17      cD      -0.174950E-01   12.0100           0
      8651 MEMB     64       OL       H7R      hL       0.195980E-01   1.00800           0
      8652 MEMB     64       OL       H7S      hL       0.195980E-01   1.00800           0
      8653 MEMB     64       OL       C18      cD       0.317750E-01   12.0100           0
      8654 MEMB     64       OL       H8R      hL       0.326850E-01   1.00800           0
      8655 MEMB     64       OL       H8S      hL       0.326850E-01   1.00800           0
      8656 MEMB     64       OL       C19      cB      -0.244228       12.0100           0
      8657 MEMB     64       OL       H9R      hB       0.131512       1.00800           0
      8658 MEMB     64       OL       C110     cB      -0.239284       12.0100           0
      8659 MEMB     64       OL       H10R     hB       0.126878       1.00800           0
      8660 MEMB     64       OL       C111     cD       0.290590E-01   12.0100           0
      8661 MEMB     64       OL       H11R     hL       0.335310E-01   1.00800           0
      8662 MEMB     64       OL       H11S     hL       0.335310E-01   1.00800           0
      8663 MEMB     64       OL       C112     cD      -0.263530E-01   12.0100           0
      8664 MEMB     64       OL       H12R     hL       0.197170E-01   1.00800           0
      8665 MEMB     64       OL       H12S     hL       0.197170E-01   1.00800           0
      8666 MEMB     64       OL       C113     cD      -0.182570E-01   12.0100           0
      8667 MEMB     64       OL       H13R     hL       0.138000E-01   1.00800           0
      8668 MEMB     64       OL       H13S     hL       0.138000E-01   1.00800           0
      8669 MEMB     64       OL       C114     cD      -0.248490E-01   12.0100           0
      8670 MEMB     64       OL       H14R     hL       0.857200E-02   1.00800           0
      8671 MEMB     64       OL       H14S     hL       0.857200E-02   1.00800           0
      8672 MEMB     64       OL       C115     cD      -0.232470E-01   12.0100           0
      8673 MEMB     64       OL       H15R     hL       0.104030E-01   1.00800           0
      8674 MEMB     64       OL       H15S     hL       0.104030E-01   1.00800           0
      8675 MEMB     64       OL       C116     cD      -0.124880E-01   12.0100           0
      8676 MEMB     64       OL       H16R     hL       0.136590E-01   1.00800           0
      8677 MEMB     64       OL       H16S     hL       0.136590E-01   1.00800           0
      8678 MEMB     64       OL       C117     cD       0.868400E-02   12.0100           0
      8679 MEMB     64       OL       H17R     hL       0.100260E-01   1.00800           0
      8680 MEMB     64       OL       H17S     hL       0.100260E-01   1.00800           0
      8681 MEMB     64       OL       C118     cD      -0.117290       12.0100           0
      8682 MEMB     64       OL       H18R     hL       0.266270E-01   1.00800           0
      8683 MEMB     64       OL       H18S     hL       0.266270E-01   1.00800           0
      8684 MEMB     64       OL       H18T     hL       0.266270E-01   1.00800           0
      8685 MEMB     65       PA       C116     cD      -0.125447       12.0100           0
      8686 MEMB     65       PA       H16R     hL       0.290470E-01   1.00800           0
      8687 MEMB     65       PA       H16S     hL       0.290470E-01   1.00800           0
      8688 MEMB     65       PA       H16T     hL       0.290470E-01   1.00800           0
      8689 MEMB     65       PA       C115     cD       0.139750E-01   12.0100           0
      8690 MEMB     65       PA       H15R     hL       0.929200E-02   1.00800           0
      8691 MEMB     65       PA       H15S     hL       0.929200E-02   1.00800           0
      8692 MEMB     65       PA       C114     cD      -0.200860E-01   12.0100           0
      8693 MEMB     65       PA       H14R     hL       0.159290E-01   1.00800           0
      8694 MEMB     65       PA       H14S     hL       0.159290E-01   1.00800           0
      8695 MEMB     65       PA       C113     cD      -0.330960E-01   12.0100           0
      8696 MEMB     65       PA       H13R     hL       0.146210E-01   1.00800           0
      8697 MEMB     65       PA       H13S     hL       0.146210E-01   1.00800           0
      8698 MEMB     65       PA       C112     cD      -0.276330E-01   12.0100           0
      8699 MEMB     65       PA       H12R     hL       0.113680E-01   1.00800           0
      8700 MEMB     65       PA       H12S     hL       0.113680E-01   1.00800           0
      8701 MEMB     65       PA       C111     cD      -0.252060E-01   12.0100           0
      8702 MEMB     65       PA       H11R     hL       0.143340E-01   1.00800           0
      8703 MEMB     65       PA       H11S     hL       0.143340E-01   1.00800           0
      8704 MEMB     65       PA       C110     cD      -0.288310E-01   12.0100           0
      8705 MEMB     65       PA       H10R     hL       0.146910E-01   1.00800           0
      8706 MEMB     65       PA       H10S     hL       0.146910E-01   1.00800           0
      8707 MEMB     65       PA       C19      cD      -0.304720E-01   12.0100           0
      8708 MEMB     65       PA       H9R      hL       0.138970E-01   1.00800           0
      8709 MEMB     65       PA       H9S      hL       0.138970E-01   1.00800           0
      8710 MEMB     65       PA       C18      cD      -0.157930E-01   12.0100           0
      8711 MEMB     65       PA       H8R      hL       0.906700E-02   1.00800           0
      8712 MEMB     65       PA       H8S      hL       0.906700E-02   1.00800           0
      8713 MEMB     65       PA       C17      cD      -0.196300E-01   12.0100           0
      8714 MEMB     65       PA       H7R      hL       0.110410E-01   1.00800           0
      8715 MEMB     65       PA       H7S      hL       0.110410E-01   1.00800           0
      8716 MEMB     65       PA       C16      cD      -0.244270E-01   12.0100           0
      8717 MEMB     65       PA       H6R      hL       0.133340E-01   1.00800           0
      8718 MEMB     65       PA       H6S      hL       0.133340E-01   1.00800           0
      8719 MEMB     65       PA       C15      cD      -0.293870E-01   12.0100           0
      8720 MEMB     65       PA       H5R      hL       0.167630E-01   1.00800           0
      8721 MEMB     65       PA       H5S      hL       0.167630E-01   1.00800           0
      8722 MEMB     65       PA       C14      cD      -0.300990E-01   12.0100           0
      8723 MEMB     65       PA       H4R      hL       0.208770E-01   1.00800           0
      8724 MEMB     65       PA       H4S      hL       0.208770E-01   1.00800           0
      8725 MEMB     65       PA       C13      cD      -0.488200E-02   12.0100           0
      8726 MEMB     65       PA       H3R      hL       0.190070E-01   1.00800           0
      8727 MEMB     65       PA       H3S      hL       0.190070E-01   1.00800           0
      8728 MEMB     65       PA       C12      cD      -0.149259       12.0100           0
      8729 MEMB     65       PA       H2R      hL       0.473450E-01   1.00800           0
      8730 MEMB     65       PA       H2S      hL       0.473450E-01   1.00800           0
      8731 MEMB     65       PC       C11      cC       0.910403       12.0100           0
      8732 MEMB     65       PC       O12      oC      -0.671566       16.0000           0
      8733 MEMB     65       PC       O11      oS      -0.575489       16.0000           0
      8734 MEMB     65       PC       C1       cA       0.196939       12.0100           0
      8735 MEMB     65       PC       HR       hE       0.704690E-01   1.00800           0
      8736 MEMB     65       PC       HS       hE       0.704690E-01   1.00800           0
      8737 MEMB     65       PC       C2       cA       0.281242       12.0100           0
      8738 MEMB     65       PC       HX       hE       0.632530E-01   1.00800           0
      8739 MEMB     65       PC       C3       cA       0.174590E-01   12.0100           0
      8740 MEMB     65       PC       HA       hE       0.955910E-01   1.00800           0
      8741 MEMB     65       PC       HB       hE       0.955910E-01   1.00800           0
      8742 MEMB     65       PC       O31      oT      -0.509480       16.0000           0
      8743 MEMB     65       PC       P31      pA       1.339721       30.9700           0
      8744 MEMB     65       PC       O32      oT      -0.508176       16.0000           0
      8745 MEMB     65       PC       C31      cA       0.166801       12.0100           0
      8746 MEMB     65       PC       H1A      hE       0.785340E-01   1.00800           0
      8747 MEMB     65       PC       H1B      hE       0.785340E-01   1.00800           0
      8748 MEMB     65       PC       C32      cA      -0.170824       12.0100           0
      8749 MEMB     65       PC       H2A      hX       0.136415       1.00800           0
      8750 MEMB     65       PC       H2B      hX       0.136415       1.00800           0
      8751 MEMB     65       PC       N31      nA       0.245262       14.0100           0
      8752 MEMB     65       PC       C33      cA      -0.338973       12.0100           0
      8753 MEMB     65       PC       H3A      hX       0.172230       1.00800           0
      8754 MEMB     65       PC       H3B      hX       0.172230       1.00800           0
      8755 MEMB     65       PC       H3C      hX       0.172230       1.00800           0
      8756 MEMB     65       PC       C34      cA      -0.338973       12.0100           0
      8757 MEMB     65       PC       H4A      hX       0.172230       1.00800           0
      8758 MEMB     65       PC       H4B      hX       0.172230       1.00800           0
      8759 MEMB     65       PC       H4C      hX       0.172230       1.00800           0
      8760 MEMB     65       PC       C35      cA      -0.338973       12.0100           0
      8761 MEMB     65       PC       H5A      hX       0.172230       1.00800           0
      8762 MEMB     65       PC       H5B      hX       0.172230       1.00800           0
      8763 MEMB     65       PC       H5C      hX       0.172230       1.00800           0
      8764 MEMB     65       PC       O33      oP      -0.875812       16.0000           0
      8765 MEMB     65       PC       O34      oP      -0.875812       16.0000           0
      8766 MEMB     65       PC       O21      oS      -0.552948       16.0000           0
      8767 MEMB     65       PC       C21      cC       0.897613       12.0100           0
      8768 MEMB     65       PC       O22      oC      -0.673755       16.0000           0
      8769 MEMB     65       OL       C12      cD      -0.143418       12.0100           0
      8770 MEMB     65       OL       H2R      hL       0.428610E-01   1.00800           0
      8771 MEMB     65       OL       H2S      hL       0.428610E-01   1.00800           0
      8772 MEMB     65       OL       C13      cD       0.161900E-02   12.0100           0
      8773 MEMB     65       OL       H3R      hL       0.195290E-01   1.00800           0
      8774 MEMB     65       OL       H3S      hL       0.195290E-01   1.00800           0
      8775 MEMB     65       OL       C14      cD      -0.229600E-01   12.0100           0
      8776 MEMB     65       OL       H4R      hL       0.181340E-01   1.00800           0
      8777 MEMB     65       OL       H4S      hL       0.181340E-01   1.00800           0
      8778 MEMB     65       OL       C15      cD      -0.166920E-01   12.0100           0
      8779 MEMB     65       OL       H5R      hL       0.869000E-02   1.00800           0
      8780 MEMB     65       OL       H5S      hL       0.869000E-02   1.00800           0
      8781 MEMB     65       OL       C16      cD      -0.237890E-01   12.0100           0
      8782 MEMB     65       OL       H6R      hL       0.926600E-02   1.00800           0
      8783 MEMB     65       OL       H6S      hL       0.926600E-02   1.00800           0
      8784 MEMB     65       OL       C17      cD      -0.174950E-01   12.0100           0
      8785 MEMB     65       OL       H7R      hL       0.195980E-01   1.00800           0
      8786 MEMB     65       OL       H7S      hL       0.195980E-01   1.00800           0
      8787 MEMB     65       OL       C18      cD       0.317750E-01   12.0100           0
      8788 MEMB     65       OL       H8R      hL       0.326850E-01   1.00800           0
      8789 MEMB     65       OL       H8S      hL       0.326850E-01   1.00800           0
      8790 MEMB     65       OL       C19      cB      -0.244228       12.0100           0
      8791 MEMB     65       OL       H9R      hB       0.131512       1.00800           0
      8792 MEMB     65       OL       C110     cB      -0.239284       12.0100           0
      8793 MEMB     65       OL       H10R     hB       0.126878       1.00800           0
      8794 MEMB     65       OL       C111     cD       0.290590E-01   12.0100           0
      8795 MEMB     65       OL       H11R     hL       0.335310E-01   1.00800           0
      8796 MEMB     65       OL       H11S     hL       0.335310E-01   1.00800           0
      8797 MEMB     65       OL       C112     cD      -0.263530E-01   12.0100           0
      8798 MEMB     65       OL       H12R     hL       0.197170E-01   1.00800           0
      8799 MEMB     65       OL       H12S     hL       0.197170E-01   1.00800           0
      8800 MEMB     65       OL       C113     cD      -0.182570E-01   12.0100           0
      8801 MEMB     65       OL       H13R     hL       0.138000E-01   1.00800           0
      8802 MEMB     65       OL       H13S     hL       0.138000E-01   1.00800           0
      8803 MEMB     65       OL       C114     cD      -0.248490E-01   12.0100           0
      8804 MEMB     65       OL       H14R     hL       0.857200E-02   1.00800           0
      8805 MEMB     65       OL       H14S     hL       0.857200E-02   1.00800           0
      8806 MEMB     65       OL       C115     cD      -0.232470E-01   12.0100           0
      8807 MEMB     65       OL       H15R     hL       0.104030E-01   1.00800           0
      8808 MEMB     65       OL       H15S     hL       0.104030E-01   1.00800           0
      8809 MEMB     65       OL       C116     cD      -0.124880E-01   12.0100           0
      8810 MEMB     65       OL       H16R     hL       0.136590E-01   1.00800           0
      8811 MEMB     65       OL       H16S     hL       0.136590E-01   1.00800           0
      8812 MEMB     65       OL       C117     cD       0.868400E-02   12.0100           0
      8813 MEMB     65       OL       H17R     hL       0.100260E-01   1.00800           0
      8814 MEMB     65       OL       H17S     hL       0.100260E-01   1.00800           0
      8815 MEMB     65       OL       C118     cD      -0.117290       12.0100           0
      8816 MEMB     65       OL       H18R     hL       0.266270E-01   1.00800           0
      8817 MEMB     65       OL       H18S     hL       0.266270E-01   1.00800           0
      8818 MEMB     65       OL       H18T     hL       0.266270E-01   1.00800           0
      8819 MEMB     66       PA       C116     cD      -0.125447       12.0100           0
      8820 MEMB     66       PA       H16R     hL       0.290470E-01   1.00800           0
      8821 MEMB     66       PA       H16S     hL       0.290470E-01   1.00800           0
      8822 MEMB     66       PA       H16T     hL       0.290470E-01   1.00800           0
      8823 MEMB     66       PA       C115     cD       0.139750E-01   12.0100           0
      8824 MEMB     66       PA       H15R     hL       0.929200E-02   1.00800           0
      8825 MEMB     66       PA       H15S     hL       0.929200E-02   1.00800           0
      8826 MEMB     66       PA       C114     cD      -0.200860E-01   12.0100           0
      8827 MEMB     66       PA       H14R     hL       0.159290E-01   1.00800           0
      8828 MEMB     66       PA       H14S     hL       0.159290E-01   1.00800           0
      8829 MEMB     66       PA       C113     cD      -0.330960E-01   12.0100           0
      8830 MEMB     66       PA       H13R     hL       0.146210E-01   1.00800           0
      8831 MEMB     66       PA       H13S     hL       0.146210E-01   1.00800           0
      8832 MEMB     66       PA       C112     cD      -0.276330E-01   12.0100           0
      8833 MEMB     66       PA       H12R     hL       0.113680E-01   1.00800           0
      8834 MEMB     66       PA       H12S     hL       0.113680E-01   1.00800           0
      8835 MEMB     66       PA       C111     cD      -0.252060E-01   12.0100           0
      8836 MEMB     66       PA       H11R     hL       0.143340E-01   1.00800           0
      8837 MEMB     66       PA       H11S     hL       0.143340E-01   1.00800           0
      8838 MEMB     66       PA       C110     cD      -0.288310E-01   12.0100           0
      8839 MEMB     66       PA       H10R     hL       0.146910E-01   1.00800           0
      8840 MEMB     66       PA       H10S     hL       0.146910E-01   1.00800           0
      8841 MEMB     66       PA       C19      cD      -0.304720E-01   12.0100           0
      8842 MEMB     66       PA       H9R      hL       0.138970E-01   1.00800           0
      8843 MEMB     66       PA       H9S      hL       0.138970E-01   1.00800           0
      8844 MEMB     66       PA       C18      cD      -0.157930E-01   12.0100           0
      8845 MEMB     66       PA       H8R      hL       0.906700E-02   1.00800           0
      8846 MEMB     66       PA       H8S      hL       0.906700E-02   1.00800           0
      8847 MEMB     66       PA       C17      cD      -0.196300E-01   12.0100           0
      8848 MEMB     66       PA       H7R      hL       0.110410E-01   1.00800           0
      8849 MEMB     66       PA       H7S      hL       0.110410E-01   1.00800           0
      8850 MEMB     66       PA       C16      cD      -0.244270E-01   12.0100           0
      8851 MEMB     66       PA       H6R      hL       0.133340E-01   1.00800           0
      8852 MEMB     66       PA       H6S      hL       0.133340E-01   1.00800           0
      8853 MEMB     66       PA       C15      cD      -0.293870E-01   12.0100           0
      8854 MEMB     66       PA       H5R      hL       0.167630E-01   1.00800           0
      8855 MEMB     66       PA       H5S      hL       0.167630E-01   1.00800           0
      8856 MEMB     66       PA       C14      cD      -0.300990E-01   12.0100           0
      8857 MEMB     66       PA       H4R      hL       0.208770E-01   1.00800           0
      8858 MEMB     66       PA       H4S      hL       0.208770E-01   1.00800           0
      8859 MEMB     66       PA       C13      cD      -0.488200E-02   12.0100           0
      8860 MEMB     66       PA       H3R      hL       0.190070E-01   1.00800           0
      8861 MEMB     66       PA       H3S      hL       0.190070E-01   1.00800           0
      8862 MEMB     66       PA       C12      cD      -0.149259       12.0100           0
      8863 MEMB     66       PA       H2R      hL       0.473450E-01   1.00800           0
      8864 MEMB     66       PA       H2S      hL       0.473450E-01   1.00800           0
      8865 MEMB     66       PC       C11      cC       0.910403       12.0100           0
      8866 MEMB     66       PC       O12      oC      -0.671566       16.0000           0
      8867 MEMB     66       PC       O11      oS      -0.575489       16.0000           0
      8868 MEMB     66       PC       C1       cA       0.196939       12.0100           0
      8869 MEMB     66       PC       HR       hE       0.704690E-01   1.00800           0
      8870 MEMB     66       PC       HS       hE       0.704690E-01   1.00800           0
      8871 MEMB     66       PC       C2       cA       0.281242       12.0100           0
      8872 MEMB     66       PC       HX       hE       0.632530E-01   1.00800           0
      8873 MEMB     66       PC       C3       cA       0.174590E-01   12.0100           0
      8874 MEMB     66       PC       HA       hE       0.955910E-01   1.00800           0
      8875 MEMB     66       PC       HB       hE       0.955910E-01   1.00800           0
      8876 MEMB     66       PC       O31      oT      -0.509480       16.0000           0
      8877 MEMB     66       PC       P31      pA       1.339721       30.9700           0
      8878 MEMB     66       PC       O32      oT      -0.508176       16.0000           0
      8879 MEMB     66       PC       C31      cA       0.166801       12.0100           0
      8880 MEMB     66       PC       H1A      hE       0.785340E-01   1.00800           0
      8881 MEMB     66       PC       H1B      hE       0.785340E-01   1.00800           0
      8882 MEMB     66       PC       C32      cA      -0.170824       12.0100           0
      8883 MEMB     66       PC       H2A      hX       0.136415       1.00800           0
      8884 MEMB     66       PC       H2B      hX       0.136415       1.00800           0
      8885 MEMB     66       PC       N31      nA       0.245262       14.0100           0
      8886 MEMB     66       PC       C33      cA      -0.338973       12.0100           0
      8887 MEMB     66       PC       H3A      hX       0.172230       1.00800           0
      8888 MEMB     66       PC       H3B      hX       0.172230       1.00800           0
      8889 MEMB     66       PC       H3C      hX       0.172230       1.00800           0
      8890 MEMB     66       PC       C34      cA      -0.338973       12.0100           0
      8891 MEMB     66       PC       H4A      hX       0.172230       1.00800           0
      8892 MEMB     66       PC       H4B      hX       0.172230       1.00800           0
      8893 MEMB     66       PC       H4C      hX       0.172230       1.00800           0
      8894 MEMB     66       PC       C35      cA      -0.338973       12.0100           0
      8895 MEMB     66       PC       H5A      hX       0.172230       1.00800           0
      8896 MEMB     66       PC       H5B      hX       0.172230       1.00800           0
      8897 MEMB     66       PC       H5C      hX       0.172230       1.00800           0
      8898 MEMB     66       PC       O33      oP      -0.875812       16.0000           0
      8899 MEMB     66       PC       O34      oP      -0.875812       16.0000           0
      8900 MEMB     66       PC       O21      oS      -0.552948       16.0000           0
      8901 MEMB     66       PC       C21      cC       0.897613       12.0100           0
      8902 MEMB     66       PC       O22      oC      -0.673755       16.0000           0
      8903 MEMB     66       OL       C12      cD      -0.143418       12.0100           0
      8904 MEMB     66       OL       H2R      hL       0.428610E-01   1.00800           0
      8905 MEMB     66       OL       H2S      hL       0.428610E-01   1.00800           0
      8906 MEMB     66       OL       C13      cD       0.161900E-02   12.0100           0
      8907 MEMB     66       OL       H3R      hL       0.195290E-01   1.00800           0
      8908 MEMB     66       OL       H3S      hL       0.195290E-01   1.00800           0
      8909 MEMB     66       OL       C14      cD      -0.229600E-01   12.0100           0
      8910 MEMB     66       OL       H4R      hL       0.181340E-01   1.00800           0
      8911 MEMB     66       OL       H4S      hL       0.181340E-01   1.00800           0
      8912 MEMB     66       OL       C15      cD      -0.166920E-01   12.0100           0
      8913 MEMB     66       OL       H5R      hL       0.869000E-02   1.00800           0
      8914 MEMB     66       OL       H5S      hL       0.869000E-02   1.00800           0
      8915 MEMB     66       OL       C16      cD      -0.237890E-01   12.0100           0
      8916 MEMB     66       OL       H6R      hL       0.926600E-02   1.00800           0
      8917 MEMB     66       OL       H6S      hL       0.926600E-02   1.00800           0
      8918 MEMB     66       OL       C17      cD      -0.174950E-01   12.0100           0
      8919 MEMB     66       OL       H7R      hL       0.195980E-01   1.00800           0
      8920 MEMB     66       OL       H7S      hL       0.195980E-01   1.00800           0
      8921 MEMB     66       OL       C18      cD       0.317750E-01   12.0100           0
      8922 MEMB     66       OL       H8R      hL       0.326850E-01   1.00800           0
      8923 MEMB     66       OL       H8S      hL       0.326850E-01   1.00800           0
      8924 MEMB     66       OL       C19      cB      -0.244228       12.0100           0
      8925 MEMB     66       OL       H9R      hB       0.131512       1.00800           0
      8926 MEMB     66       OL       C110     cB      -0.239284       12.0100           0
      8927 MEMB     66       OL       H10R     hB       0.126878       1.00800           0
      8928 MEMB     66       OL       C111     cD       0.290590E-01   12.0100           0
      8929 MEMB     66       OL       H11R     hL       0.335310E-01   1.00800           0
      8930 MEMB     66       OL       H11S     hL       0.335310E-01   1.00800           0
      8931 MEMB     66       OL       C112     cD      -0.263530E-01   12.0100           0
      8932 MEMB     66       OL       H12R     hL       0.197170E-01   1.00800           0
      8933 MEMB     66       OL       H12S     hL       0.197170E-01   1.00800           0
      8934 MEMB     66       OL       C113     cD      -0.182570E-01   12.0100           0
      8935 MEMB     66       OL       H13R     hL       0.138000E-01   1.00800           0
      8936 MEMB     66       OL       H13S     hL       0.138000E-01   1.00800           0
      8937 MEMB     66       OL       C114     cD      -0.248490E-01   12.0100           0
      8938 MEMB     66       OL       H14R     hL       0.857200E-02   1.00800           0
      8939 MEMB     66       OL       H14S     hL       0.857200E-02   1.00800           0
      8940 MEMB     66       OL       C115     cD      -0.232470E-01   12.0100           0
      8941 MEMB     66       OL       H15R     hL       0.104030E-01   1.00800           0
      8942 MEMB     66       OL       H15S     hL       0.104030E-01   1.00800           0
      8943 MEMB     66       OL       C116     cD      -0.124880E-01   12.0100           0
      8944 MEMB     66       OL       H16R     hL       0.136590E-01   1.00800           0
      8945 MEMB     66       OL       H16S     hL       0.136590E-01   1.00800           0
      8946 MEMB     66       OL       C117     cD       0.868400E-02   12.0100           0
      8947 MEMB     66       OL       H17R     hL       0.100260E-01   1.00800           0
      8948 MEMB     66       OL       H17S     hL       0.100260E-01   1.00800           0
      8949 MEMB     66       OL       C118     cD      -0.117290       12.0100           0
      8950 MEMB     66       OL       H18R     hL       0.266270E-01   1.00800           0
      8951 MEMB     66       OL       H18S     hL       0.266270E-01   1.00800           0
      8952 MEMB     66       OL       H18T     hL       0.266270E-01   1.00800           0
      8953 MEMB     67       PA       C116     cD      -0.125447       12.0100           0
      8954 MEMB     67       PA       H16R     hL       0.290470E-01   1.00800           0
      8955 MEMB     67       PA       H16S     hL       0.290470E-01   1.00800           0
      8956 MEMB     67       PA       H16T     hL       0.290470E-01   1.00800           0
      8957 MEMB     67       PA       C115     cD       0.139750E-01   12.0100           0
      8958 MEMB     67       PA       H15R     hL       0.929200E-02   1.00800           0
      8959 MEMB     67       PA       H15S     hL       0.929200E-02   1.00800           0
      8960 MEMB     67       PA       C114     cD      -0.200860E-01   12.0100           0
      8961 MEMB     67       PA       H14R     hL       0.159290E-01   1.00800           0
      8962 MEMB     67       PA       H14S     hL       0.159290E-01   1.00800           0
      8963 MEMB     67       PA       C113     cD      -0.330960E-01   12.0100           0
      8964 MEMB     67       PA       H13R     hL       0.146210E-01   1.00800           0
      8965 MEMB     67       PA       H13S     hL       0.146210E-01   1.00800           0
      8966 MEMB     67       PA       C112     cD      -0.276330E-01   12.0100           0
      8967 MEMB     67       PA       H12R     hL       0.113680E-01   1.00800           0
      8968 MEMB     67       PA       H12S     hL       0.113680E-01   1.00800           0
      8969 MEMB     67       PA       C111     cD      -0.252060E-01   12.0100           0
      8970 MEMB     67       PA       H11R     hL       0.143340E-01   1.00800           0
      8971 MEMB     67       PA       H11S     hL       0.143340E-01   1.00800           0
      8972 MEMB     67       PA       C110     cD      -0.288310E-01   12.0100           0
      8973 MEMB     67       PA       H10R     hL       0.146910E-01   1.00800           0
      8974 MEMB     67       PA       H10S     hL       0.146910E-01   1.00800           0
      8975 MEMB     67       PA       C19      cD      -0.304720E-01   12.0100           0
      8976 MEMB     67       PA       H9R      hL       0.138970E-01   1.00800           0
      8977 MEMB     67       PA       H9S      hL       0.138970E-01   1.00800           0
      8978 MEMB     67       PA       C18      cD      -0.157930E-01   12.0100           0
      8979 MEMB     67       PA       H8R      hL       0.906700E-02   1.00800           0
      8980 MEMB     67       PA       H8S      hL       0.906700E-02   1.00800           0
      8981 MEMB     67       PA       C17      cD      -0.196300E-01   12.0100           0
      8982 MEMB     67       PA       H7R      hL       0.110410E-01   1.00800           0
      8983 MEMB     67       PA       H7S      hL       0.110410E-01   1.00800           0
      8984 MEMB     67       PA       C16      cD      -0.244270E-01   12.0100           0
      8985 MEMB     67       PA       H6R      hL       0.133340E-01   1.00800           0
      8986 MEMB     67       PA       H6S      hL       0.133340E-01   1.00800           0
      8987 MEMB     67       PA       C15      cD      -0.293870E-01   12.0100           0
      8988 MEMB     67       PA       H5R      hL       0.167630E-01   1.00800           0
      8989 MEMB     67       PA       H5S      hL       0.167630E-01   1.00800           0
      8990 MEMB     67       PA       C14      cD      -0.300990E-01   12.0100           0
      8991 MEMB     67       PA       H4R      hL       0.208770E-01   1.00800           0
      8992 MEMB     67       PA       H4S      hL       0.208770E-01   1.00800           0
      8993 MEMB     67       PA       C13      cD      -0.488200E-02   12.0100           0
      8994 MEMB     67       PA       H3R      hL       0.190070E-01   1.00800           0
      8995 MEMB     67       PA       H3S      hL       0.190070E-01   1.00800           0
      8996 MEMB     67       PA       C12      cD      -0.149259       12.0100           0
      8997 MEMB     67       PA       H2R      hL       0.473450E-01   1.00800           0
      8998 MEMB     67       PA       H2S      hL       0.473450E-01   1.00800           0
      8999 MEMB     67       PC       C11      cC       0.910403       12.0100           0
      9000 MEMB     67       PC       O12      oC      -0.671566       16.0000           0
      9001 MEMB     67       PC       O11      oS      -0.575489       16.0000           0
      9002 MEMB     67       PC       C1       cA       0.196939       12.0100           0
      9003 MEMB     67       PC       HR       hE       0.704690E-01   1.00800           0
      9004 MEMB     67       PC       HS       hE       0.704690E-01   1.00800           0
      9005 MEMB     67       PC       C2       cA       0.281242       12.0100           0
      9006 MEMB     67       PC       HX       hE       0.632530E-01   1.00800           0
      9007 MEMB     67       PC       C3       cA       0.174590E-01   12.0100           0
      9008 MEMB     67       PC       HA       hE       0.955910E-01   1.00800           0
      9009 MEMB     67       PC       HB       hE       0.955910E-01   1.00800           0
      9010 MEMB     67       PC       O31      oT      -0.509480       16.0000           0
      9011 MEMB     67       PC       P31      pA       1.339721       30.9700           0
      9012 MEMB     67       PC       O32      oT      -0.508176       16.0000           0
      9013 MEMB     67       PC       C31      cA       0.166801       12.0100           0
      9014 MEMB     67       PC       H1A      hE       0.785340E-01   1.00800           0
      9015 MEMB     67       PC       H1B      hE       0.785340E-01   1.00800           0
      9016 MEMB     67       PC       C32      cA      -0.170824       12.0100           0
      9017 MEMB     67       PC       H2A      hX       0.136415       1.00800           0
      9018 MEMB     67       PC       H2B      hX       0.136415       1.00800           0
      9019 MEMB     67       PC       N31      nA       0.245262       14.0100           0
      9020 MEMB     67       PC       C33      cA      -0.338973       12.0100           0
      9021 MEMB     67       PC       H3A      hX       0.172230       1.00800           0
      9022 MEMB     67       PC       H3B      hX       0.172230       1.00800           0
      9023 MEMB     67       PC       H3C      hX       0.172230       1.00800           0
      9024 MEMB     67       PC       C34      cA      -0.338973       12.0100           0
      9025 MEMB     67       PC       H4A      hX       0.172230       1.00800           0
      9026 MEMB     67       PC       H4B      hX       0.172230       1.00800           0
      9027 MEMB     67       PC       H4C      hX       0.172230       1.00800           0
      9028 MEMB     67       PC       C35      cA      -0.338973       12.0100           0
      9029 MEMB     67       PC       H5A      hX       0.172230       1.00800           0
      9030 MEMB     67       PC       H5B      hX       0.172230       1.00800           0
      9031 MEMB     67       PC       H5C      hX       0.172230       1.00800           0
      9032 MEMB     67       PC       O33      oP      -0.875812       16.0000           0
      9033 MEMB     67       PC       O34      oP      -0.875812       16.0000           0
      9034 MEMB     67       PC       O21      oS      -0.552948       16.0000           0
      9035 MEMB     67       PC       C21      cC       0.897613       12.0100           0
      9036 MEMB     67       PC       O22      oC      -0.673755       16.0000           0
      9037 MEMB     67       OL       C12      cD      -0.143418       12.0100           0
      9038 MEMB     67       OL       H2R      hL       0.428610E-01   1.00800           0
      9039 MEMB     67       OL       H2S      hL       0.428610E-01   1.00800           0
      9040 MEMB     67       OL       C13      cD       0.161900E-02   12.0100           0
      9041 MEMB     67       OL       H3R      hL       0.195290E-01   1.00800           0
      9042 MEMB     67       OL       H3S      hL       0.195290E-01   1.00800           0
      9043 MEMB     67       OL       C14      cD      -0.229600E-01   12.0100           0
      9044 MEMB     67       OL       H4R      hL       0.181340E-01   1.00800           0
      9045 MEMB     67       OL       H4S      hL       0.181340E-01   1.00800           0
      9046 MEMB     67       OL       C15      cD      -0.166920E-01   12.0100           0
      9047 MEMB     67       OL       H5R      hL       0.869000E-02   1.00800           0
      9048 MEMB     67       OL       H5S      hL       0.869000E-02   1.00800           0
      9049 MEMB     67       OL       C16      cD      -0.237890E-01   12.0100           0
      9050 MEMB     67       OL       H6R      hL       0.926600E-02   1.00800           0
      9051 MEMB     67       OL       H6S      hL       0.926600E-02   1.00800           0
      9052 MEMB     67       OL       C17      cD      -0.174950E-01   12.0100           0
      9053 MEMB     67       OL       H7R      hL       0.195980E-01   1.00800           0
      9054 MEMB     67       OL       H7S      hL       0.195980E-01   1.00800           0
      9055 MEMB     67       OL       C18      cD       0.317750E-01   12.0100           0
      9056 MEMB     67       OL       H8R      hL       0.326850E-01   1.00800           0
      9057 MEMB     67       OL       H8S      hL       0.326850E-01   1.00800           0
      9058 MEMB     67       OL       C19      cB      -0.244228       12.0100           0
      9059 MEMB     67       OL       H9R      hB       0.131512       1.00800           0
      9060 MEMB     67       OL       C110     cB      -0.239284       12.0100           0
      9061 MEMB     67       OL       H10R     hB       0.126878       1.00800           0
      9062 MEMB     67       OL       C111     cD       0.290590E-01   12.0100           0
      9063 MEMB     67       OL       H11R     hL       0.335310E-01   1.00800           0
      9064 MEMB     67       OL       H11S     hL       0.335310E-01   1.00800           0
      9065 MEMB     67       OL       C112     cD      -0.263530E-01   12.0100           0
      9066 MEMB     67       OL       H12R     hL       0.197170E-01   1.00800           0
      9067 MEMB     67       OL       H12S     hL       0.197170E-01   1.00800           0
      9068 MEMB     67       OL       C113     cD      -0.182570E-01   12.0100           0
      9069 MEMB     67       OL       H13R     hL       0.138000E-01   1.00800           0
      9070 MEMB     67       OL       H13S     hL       0.138000E-01   1.00800           0
      9071 MEMB     67       OL       C114     cD      -0.248490E-01   12.0100           0
      9072 MEMB     67       OL       H14R     hL       0.857200E-02   1.00800           0
      9073 MEMB     67       OL       H14S     hL       0.857200E-02   1.00800           0
      9074 MEMB     67       OL       C115     cD      -0.232470E-01   12.0100           0
      9075 MEMB     67       OL       H15R     hL       0.104030E-01   1.00800           0
      9076 MEMB     67       OL       H15S     hL       0.104030E-01   1.00800           0
      9077 MEMB     67       OL       C116     cD      -0.124880E-01   12.0100           0
      9078 MEMB     67       OL       H16R     hL       0.136590E-01   1.00800           0
      9079 MEMB     67       OL       H16S     hL       0.136590E-01   1.00800           0
      9080 MEMB     67       OL       C117     cD       0.868400E-02   12.0100           0
      9081 MEMB     67       OL       H17R     hL       0.100260E-01   1.00800           0
      9082 MEMB     67       OL       H17S     hL       0.100260E-01   1.00800           0
      9083 MEMB     67       OL       C118     cD      -0.117290       12.0100           0
      9084 MEMB     67       OL       H18R     hL       0.266270E-01   1.00800           0
      9085 MEMB     67       OL       H18S     hL       0.266270E-01   1.00800           0
      9086 MEMB     67       OL       H18T     hL       0.266270E-01   1.00800           0
      9087 MEMB     68       PA       C116     cD      -0.125447       12.0100           0
      9088 MEMB     68       PA       H16R     hL       0.290470E-01   1.00800           0
      9089 MEMB     68       PA       H16S     hL       0.290470E-01   1.00800           0
      9090 MEMB     68       PA       H16T     hL       0.290470E-01   1.00800           0
      9091 MEMB     68       PA       C115     cD       0.139750E-01   12.0100           0
      9092 MEMB     68       PA       H15R     hL       0.929200E-02   1.00800           0
      9093 MEMB     68       PA       H15S     hL       0.929200E-02   1.00800           0
      9094 MEMB     68       PA       C114     cD      -0.200860E-01   12.0100           0
      9095 MEMB     68       PA       H14R     hL       0.159290E-01   1.00800           0
      9096 MEMB     68       PA       H14S     hL       0.159290E-01   1.00800           0
      9097 MEMB     68       PA       C113     cD      -0.330960E-01   12.0100           0
      9098 MEMB     68       PA       H13R     hL       0.146210E-01   1.00800           0
      9099 MEMB     68       PA       H13S     hL       0.146210E-01   1.00800           0
      9100 MEMB     68       PA       C112     cD      -0.276330E-01   12.0100           0
      9101 MEMB     68       PA       H12R     hL       0.113680E-01   1.00800           0
      9102 MEMB     68       PA       H12S     hL       0.113680E-01   1.00800           0
      9103 MEMB     68       PA       C111     cD      -0.252060E-01   12.0100           0
      9104 MEMB     68       PA       H11R     hL       0.143340E-01   1.00800           0
      9105 MEMB     68       PA       H11S     hL       0.143340E-01   1.00800           0
      9106 MEMB     68       PA       C110     cD      -0.288310E-01   12.0100           0
      9107 MEMB     68       PA       H10R     hL       0.146910E-01   1.00800           0
      9108 MEMB     68       PA       H10S     hL       0.146910E-01   1.00800           0
      9109 MEMB     68       PA       C19      cD      -0.304720E-01   12.0100           0
      9110 MEMB     68       PA       H9R      hL       0.138970E-01   1.00800           0
      9111 MEMB     68       PA       H9S      hL       0.138970E-01   1.00800           0
      9112 MEMB     68       PA       C18      cD      -0.157930E-01   12.0100           0
      9113 MEMB     68       PA       H8R      hL       0.906700E-02   1.00800           0
      9114 MEMB     68       PA       H8S      hL       0.906700E-02   1.00800           0
      9115 MEMB     68       PA       C17      cD      -0.196300E-01   12.0100           0
      9116 MEMB     68       PA       H7R      hL       0.110410E-01   1.00800           0
      9117 MEMB     68       PA       H7S      hL       0.110410E-01   1.00800           0
      9118 MEMB     68       PA       C16      cD      -0.244270E-01   12.0100           0
      9119 MEMB     68       PA       H6R      hL       0.133340E-01   1.00800           0
      9120 MEMB     68       PA       H6S      hL       0.133340E-01   1.00800           0
      9121 MEMB     68       PA       C15      cD      -0.293870E-01   12.0100           0
      9122 MEMB     68       PA       H5R      hL       0.167630E-01   1.00800           0
      9123 MEMB     68       PA       H5S      hL       0.167630E-01   1.00800           0
      9124 MEMB     68       PA       C14      cD      -0.300990E-01   12.0100           0
      9125 MEMB     68       PA       H4R      hL       0.208770E-01   1.00800           0
      9126 MEMB     68       PA       H4S      hL       0.208770E-01   1.00800           0
      9127 MEMB     68       PA       C13      cD      -0.488200E-02   12.0100           0
      9128 MEMB     68       PA       H3R      hL       0.190070E-01   1.00800           0
      9129 MEMB     68       PA       H3S      hL       0.190070E-01   1.00800           0
      9130 MEMB     68       PA       C12      cD      -0.149259       12.0100           0
      9131 MEMB     68       PA       H2R      hL       0.473450E-01   1.00800           0
      9132 MEMB     68       PA       H2S      hL       0.473450E-01   1.00800           0
      9133 MEMB     68       PC       C11      cC       0.910403       12.0100           0
      9134 MEMB     68       PC       O12      oC      -0.671566       16.0000           0
      9135 MEMB     68       PC       O11      oS      -0.575489       16.0000           0
      9136 MEMB     68       PC       C1       cA       0.196939       12.0100           0
      9137 MEMB     68       PC       HR       hE       0.704690E-01   1.00800           0
      9138 MEMB     68       PC       HS       hE       0.704690E-01   1.00800           0
      9139 MEMB     68       PC       C2       cA       0.281242       12.0100           0
      9140 MEMB     68       PC       HX       hE       0.632530E-01   1.00800           0
      9141 MEMB     68       PC       C3       cA       0.174590E-01   12.0100           0
      9142 MEMB     68       PC       HA       hE       0.955910E-01   1.00800           0
      9143 MEMB     68       PC       HB       hE       0.955910E-01   1.00800           0
      9144 MEMB     68       PC       O31      oT      -0.509480       16.0000           0
      9145 MEMB     68       PC       P31      pA       1.339721       30.9700           0
      9146 MEMB     68       PC       O32      oT      -0.508176       16.0000           0
      9147 MEMB     68       PC       C31      cA       0.166801       12.0100           0
      9148 MEMB     68       PC       H1A      hE       0.785340E-01   1.00800           0
      9149 MEMB     68       PC       H1B      hE       0.785340E-01   1.00800           0
      9150 MEMB     68       PC       C32      cA      -0.170824       12.0100           0
      9151 MEMB     68       PC       H2A      hX       0.136415       1.00800           0
      9152 MEMB     68       PC       H2B      hX       0.136415       1.00800           0
      9153 MEMB     68       PC       N31      nA       0.245262       14.0100           0
      9154 MEMB     68       PC       C33      cA      -0.338973       12.0100           0
      9155 MEMB     68       PC       H3A      hX       0.172230       1.00800           0
      9156 MEMB     68       PC       H3B      hX       0.172230       1.00800           0
      9157 MEMB     68       PC       H3C      hX       0.172230       1.00800           0
      9158 MEMB     68       PC       C34      cA      -0.338973       12.0100           0
      9159 MEMB     68       PC       H4A      hX       0.172230       1.00800           0
      9160 MEMB     68       PC       H4B      hX       0.172230       1.00800           0
      9161 MEMB     68       PC       H4C      hX       0.172230       1.00800           0
      9162 MEMB     68       PC       C35      cA      -0.338973       12.0100           0
      9163 MEMB     68       PC       H5A      hX       0.172230       1.00800           0
      9164 MEMB     68       PC       H5B      hX       0.172230       1.00800           0
      9165 MEMB     68       PC       H5C      hX       0.172230       1.00800           0
      9166 MEMB     68       PC       O33      oP      -0.875812       16.0000           0
      9167 MEMB     68       PC       O34      oP      -0.875812       16.0000           0
      9168 MEMB     68       PC       O21      oS      -0.552948       16.0000           0
      9169 MEMB     68       PC       C21      cC       0.897613       12.0100           0
      9170 MEMB     68       PC       O22      oC      -0.673755       16.0000           0
      9171 MEMB     68       OL       C12      cD      -0.143418       12.0100           0
      9172 MEMB     68       OL       H2R      hL       0.428610E-01   1.00800           0
      9173 MEMB     68       OL       H2S      hL       0.428610E-01   1.00800           0
      9174 MEMB     68       OL       C13      cD       0.161900E-02   12.0100           0
      9175 MEMB     68       OL       H3R      hL       0.195290E-01   1.00800           0
      9176 MEMB     68       OL       H3S      hL       0.195290E-01   1.00800           0
      9177 MEMB     68       OL       C14      cD      -0.229600E-01   12.0100           0
      9178 MEMB     68       OL       H4R      hL       0.181340E-01   1.00800           0
      9179 MEMB     68       OL       H4S      hL       0.181340E-01   1.00800           0
      9180 MEMB     68       OL       C15      cD      -0.166920E-01   12.0100           0
      9181 MEMB     68       OL       H5R      hL       0.869000E-02   1.00800           0
      9182 MEMB     68       OL       H5S      hL       0.869000E-02   1.00800           0
      9183 MEMB     68       OL       C16      cD      -0.237890E-01   12.0100           0
      9184 MEMB     68       OL       H6R      hL       0.926600E-02   1.00800           0
      9185 MEMB     68       OL       H6S      hL       0.926600E-02   1.00800           0
      9186 MEMB     68       OL       C17      cD      -0.174950E-01   12.0100           0
      9187 MEMB     68       OL       H7R      hL       0.195980E-01   1.00800           0
      9188 MEMB     68       OL       H7S      hL       0.195980E-01   1.00800           0
      9189 MEMB     68       OL       C18      cD       0.317750E-01   12.0100           0
      9190 MEMB     68       OL       H8R      hL       0.326850E-01   1.00800           0
      9191 MEMB     68       OL       H8S      hL       0.326850E-01   1.00800           0
      9192 MEMB     68       OL       C19      cB      -0.244228       12.0100           0
      9193 MEMB     68       OL       H9R      hB       0.131512       1.00800           0
      9194 MEMB     68       OL       C110     cB      -0.239284       12.0100           0
      9195 MEMB     68       OL       H10R     hB       0.126878       1.00800           0
      9196 MEMB     68       OL       C111     cD       0.290590E-01   12.0100           0
      9197 MEMB     68       OL       H11R     hL       0.335310E-01   1.00800           0
      9198 MEMB     68       OL       H11S     hL       0.335310E-01   1.00800           0
      9199 MEMB     68       OL       C112     cD      -0.263530E-01   12.0100           0
      9200 MEMB     68       OL       H12R     hL       0.197170E-01   1.00800           0
      9201 MEMB     68       OL       H12S     hL       0.197170E-01   1.00800           0
      9202 MEMB     68       OL       C113     cD      -0.182570E-01   12.0100           0
      9203 MEMB     68       OL       H13R     hL       0.138000E-01   1.00800           0
      9204 MEMB     68       OL       H13S     hL       0.138000E-01   1.00800           0
      9205 MEMB     68       OL       C114     cD      -0.248490E-01   12.0100           0
      9206 MEMB     68       OL       H14R     hL       0.857200E-02   1.00800           0
      9207 MEMB     68       OL       H14S     hL       0.857200E-02   1.00800           0
      9208 MEMB     68       OL       C115     cD      -0.232470E-01   12.0100           0
      9209 MEMB     68       OL       H15R     hL       0.104030E-01   1.00800           0
      9210 MEMB     68       OL       H15S     hL       0.104030E-01   1.00800           0
      9211 MEMB     68       OL       C116     cD      -0.124880E-01   12.0100           0
      9212 MEMB     68       OL       H16R     hL       0.136590E-01   1.00800           0
      9213 MEMB     68       OL       H16S     hL       0.136590E-01   1.00800           0
      9214 MEMB     68       OL       C117     cD       0.868400E-02   12.0100           0
      9215 MEMB     68       OL       H17R     hL       0.100260E-01   1.00800           0
      9216 MEMB     68       OL       H17S     hL       0.100260E-01   1.00800           0
      9217 MEMB     68       OL       C118     cD      -0.117290       12.0100           0
      9218 MEMB     68       OL       H18R     hL       0.266270E-01   1.00800           0
      9219 MEMB     68       OL       H18S     hL       0.266270E-01   1.00800           0
      9220 MEMB     68       OL       H18T     hL       0.266270E-01   1.00800           0
      9221 MEMB     69       PA       C116     cD      -0.125447       12.0100           0
      9222 MEMB     69       PA       H16R     hL       0.290470E-01   1.00800           0
      9223 MEMB     69       PA       H16S     hL       0.290470E-01   1.00800           0
      9224 MEMB     69       PA       H16T     hL       0.290470E-01   1.00800           0
      9225 MEMB     69       PA       C115     cD       0.139750E-01   12.0100           0
      9226 MEMB     69       PA       H15R     hL       0.929200E-02   1.00800           0
      9227 MEMB     69       PA       H15S     hL       0.929200E-02   1.00800           0
      9228 MEMB     69       PA       C114     cD      -0.200860E-01   12.0100           0
      9229 MEMB     69       PA       H14R     hL       0.159290E-01   1.00800           0
      9230 MEMB     69       PA       H14S     hL       0.159290E-01   1.00800           0
      9231 MEMB     69       PA       C113     cD      -0.330960E-01   12.0100           0
      9232 MEMB     69       PA       H13R     hL       0.146210E-01   1.00800           0
      9233 MEMB     69       PA       H13S     hL       0.146210E-01   1.00800           0
      9234 MEMB     69       PA       C112     cD      -0.276330E-01   12.0100           0
      9235 MEMB     69       PA       H12R     hL       0.113680E-01   1.00800           0
      9236 MEMB     69       PA       H12S     hL       0.113680E-01   1.00800           0
      9237 MEMB     69       PA       C111     cD      -0.252060E-01   12.0100           0
      9238 MEMB     69       PA       H11R     hL       0.143340E-01   1.00800           0
      9239 MEMB     69       PA       H11S     hL       0.143340E-01   1.00800           0
      9240 MEMB     69       PA       C110     cD      -0.288310E-01   12.0100           0
      9241 MEMB     69       PA       H10R     hL       0.146910E-01   1.00800           0
      9242 MEMB     69       PA       H10S     hL       0.146910E-01   1.00800           0
      9243 MEMB     69       PA       C19      cD      -0.304720E-01   12.0100           0
      9244 MEMB     69       PA       H9R      hL       0.138970E-01   1.00800           0
      9245 MEMB     69       PA       H9S      hL       0.138970E-01   1.00800           0
      9246 MEMB     69       PA       C18      cD      -0.157930E-01   12.0100           0
      9247 MEMB     69       PA       H8R      hL       0.906700E-02   1.00800           0
      9248 MEMB     69       PA       H8S      hL       0.906700E-02   1.00800           0
      9249 MEMB     69       PA       C17      cD      -0.196300E-01   12.0100           0
      9250 MEMB     69       PA       H7R      hL       0.110410E-01   1.00800           0
      9251 MEMB     69       PA       H7S      hL       0.110410E-01   1.00800           0
      9252 MEMB     69       PA       C16      cD      -0.244270E-01   12.0100           0
      9253 MEMB     69       PA       H6R      hL       0.133340E-01   1.00800           0
      9254 MEMB     69       PA       H6S      hL       0.133340E-01   1.00800           0
      9255 MEMB     69       PA       C15      cD      -0.293870E-01   12.0100           0
      9256 MEMB     69       PA       H5R      hL       0.167630E-01   1.00800           0
      9257 MEMB     69       PA       H5S      hL       0.167630E-01   1.00800           0
      9258 MEMB     69       PA       C14      cD      -0.300990E-01   12.0100           0
      9259 MEMB     69       PA       H4R      hL       0.208770E-01   1.00800           0
      9260 MEMB     69       PA       H4S      hL       0.208770E-01   1.00800           0
      9261 MEMB     69       PA       C13      cD      -0.488200E-02   12.0100           0
      9262 MEMB     69       PA       H3R      hL       0.190070E-01   1.00800           0
      9263 MEMB     69       PA       H3S      hL       0.190070E-01   1.00800           0
      9264 MEMB     69       PA       C12      cD      -0.149259       12.0100           0
      9265 MEMB     69       PA       H2R      hL       0.473450E-01   1.00800           0
      9266 MEMB     69       PA       H2S      hL       0.473450E-01   1.00800           0
      9267 MEMB     69       PC       C11      cC       0.910403       12.0100           0
      9268 MEMB     69       PC       O12      oC      -0.671566       16.0000           0
      9269 MEMB     69       PC       O11      oS      -0.575489       16.0000           0
      9270 MEMB     69       PC       C1       cA       0.196939       12.0100           0
      9271 MEMB     69       PC       HR       hE       0.704690E-01   1.00800           0
      9272 MEMB     69       PC       HS       hE       0.704690E-01   1.00800           0
      9273 MEMB     69       PC       C2       cA       0.281242       12.0100           0
      9274 MEMB     69       PC       HX       hE       0.632530E-01   1.00800           0
      9275 MEMB     69       PC       C3       cA       0.174590E-01   12.0100           0
      9276 MEMB     69       PC       HA       hE       0.955910E-01   1.00800           0
      9277 MEMB     69       PC       HB       hE       0.955910E-01   1.00800           0
      9278 MEMB     69       PC       O31      oT      -0.509480       16.0000           0
      9279 MEMB     69       PC       P31      pA       1.339721       30.9700           0
      9280 MEMB     69       PC       O32      oT      -0.508176       16.0000           0
      9281 MEMB     69       PC       C31      cA       0.166801       12.0100           0
      9282 MEMB     69       PC       H1A      hE       0.785340E-01   1.00800           0
      9283 MEMB     69       PC       H1B      hE       0.785340E-01   1.00800           0
      9284 MEMB     69       PC       C32      cA      -0.170824       12.0100           0
      9285 MEMB     69       PC       H2A      hX       0.136415       1.00800           0
      9286 MEMB     69       PC       H2B      hX       0.136415       1.00800           0
      9287 MEMB     69       PC       N31      nA       0.245262       14.0100           0
      9288 MEMB     69       PC       C33      cA      -0.338973       12.0100           0
      9289 MEMB     69       PC       H3A      hX       0.172230       1.00800           0
      9290 MEMB     69       PC       H3B      hX       0.172230       1.00800           0
      9291 MEMB     69       PC       H3C      hX       0.172230       1.00800           0
      9292 MEMB     69       PC       C34      cA      -0.338973       12.0100           0
      9293 MEMB     69       PC       H4A      hX       0.172230       1.00800           0
      9294 MEMB     69       PC       H4B      hX       0.172230       1.00800           0
      9295 MEMB     69       PC       H4C      hX       0.172230       1.00800           0
      9296 MEMB     69       PC       C35      cA      -0.338973       12.0100           0
      9297 MEMB     69       PC       H5A      hX       0.172230       1.00800           0
      9298 MEMB     69       PC       H5B      hX       0.172230       1.00800           0
      9299 MEMB     69       PC       H5C      hX       0.172230       1.00800           0
      9300 MEMB     69       PC       O33      oP      -0.875812       16.0000           0
      9301 MEMB     69       PC       O34      oP      -0.875812       16.0000           0
      9302 MEMB     69       PC       O21      oS      -0.552948       16.0000           0
      9303 MEMB     69       PC       C21      cC       0.897613       12.0100           0
      9304 MEMB     69       PC       O22      oC      -0.673755       16.0000           0
      9305 MEMB     69       OL       C12      cD      -0.143418       12.0100           0
      9306 MEMB     69       OL       H2R      hL       0.428610E-01   1.00800           0
      9307 MEMB     69       OL       H2S      hL       0.428610E-01   1.00800           0
      9308 MEMB     69       OL       C13      cD       0.161900E-02   12.0100           0
      9309 MEMB     69       OL       H3R      hL       0.195290E-01   1.00800           0
      9310 MEMB     69       OL       H3S      hL       0.195290E-01   1.00800           0
      9311 MEMB     69       OL       C14      cD      -0.229600E-01   12.0100           0
      9312 MEMB     69       OL       H4R      hL       0.181340E-01   1.00800           0
      9313 MEMB     69       OL       H4S      hL       0.181340E-01   1.00800           0
      9314 MEMB     69       OL       C15      cD      -0.166920E-01   12.0100           0
      9315 MEMB     69       OL       H5R      hL       0.869000E-02   1.00800           0
      9316 MEMB     69       OL       H5S      hL       0.869000E-02   1.00800           0
      9317 MEMB     69       OL       C16      cD      -0.237890E-01   12.0100           0
      9318 MEMB     69       OL       H6R      hL       0.926600E-02   1.00800           0
      9319 MEMB     69       OL       H6S      hL       0.926600E-02   1.00800           0
      9320 MEMB     69       OL       C17      cD      -0.174950E-01   12.0100           0
      9321 MEMB     69       OL       H7R      hL       0.195980E-01   1.00800           0
      9322 MEMB     69       OL       H7S      hL       0.195980E-01   1.00800           0
      9323 MEMB     69       OL       C18      cD       0.317750E-01   12.0100           0
      9324 MEMB     69       OL       H8R      hL       0.326850E-01   1.00800           0
      9325 MEMB     69       OL       H8S      hL       0.326850E-01   1.00800           0
      9326 MEMB     69       OL       C19      cB      -0.244228       12.0100           0
      9327 MEMB     69       OL       H9R      hB       0.131512       1.00800           0
      9328 MEMB     69       OL       C110     cB      -0.239284       12.0100           0
      9329 MEMB     69       OL       H10R     hB       0.126878       1.00800           0
      9330 MEMB     69       OL       C111     cD       0.290590E-01   12.0100           0
      9331 MEMB     69       OL       H11R     hL       0.335310E-01   1.00800           0
      9332 MEMB     69       OL       H11S     hL       0.335310E-01   1.00800           0
      9333 MEMB     69       OL       C112     cD      -0.263530E-01   12.0100           0
      9334 MEMB     69       OL       H12R     hL       0.197170E-01   1.00800           0
      9335 MEMB     69       OL       H12S     hL       0.197170E-01   1.00800           0
      9336 MEMB     69       OL       C113     cD      -0.182570E-01   12.0100           0
      9337 MEMB     69       OL       H13R     hL       0.138000E-01   1.00800           0
      9338 MEMB     69       OL       H13S     hL       0.138000E-01   1.00800           0
      9339 MEMB     69       OL       C114     cD      -0.248490E-01   12.0100           0
      9340 MEMB     69       OL       H14R     hL       0.857200E-02   1.00800           0
      9341 MEMB     69       OL       H14S     hL       0.857200E-02   1.00800           0
      9342 MEMB     69       OL       C115     cD      -0.232470E-01   12.0100           0
      9343 MEMB     69       OL       H15R     hL       0.104030E-01   1.00800           0
      9344 MEMB     69       OL       H15S     hL       0.104030E-01   1.00800           0
      9345 MEMB     69       OL       C116     cD      -0.124880E-01   12.0100           0
      9346 MEMB     69       OL       H16R     hL       0.136590E-01   1.00800           0
      9347 MEMB     69       OL       H16S     hL       0.136590E-01   1.00800           0
      9348 MEMB     69       OL       C117     cD       0.868400E-02   12.0100           0
      9349 MEMB     69       OL       H17R     hL       0.100260E-01   1.00800           0
      9350 MEMB     69       OL       H17S     hL       0.100260E-01   1.00800           0
      9351 MEMB     69       OL       C118     cD      -0.117290       12.0100           0
      9352 MEMB     69       OL       H18R     hL       0.266270E-01   1.00800           0
      9353 MEMB     69       OL       H18S     hL       0.266270E-01   1.00800           0
      9354 MEMB     69       OL       H18T     hL       0.266270E-01   1.00800           0
      9355 MEMB     70       PA       C116     cD      -0.125447       12.0100           0
      9356 MEMB     70       PA       H16R     hL       0.290470E-01   1.00800           0
      9357 MEMB     70       PA       H16S     hL       0.290470E-01   1.00800           0
      9358 MEMB     70       PA       H16T     hL       0.290470E-01   1.00800           0
      9359 MEMB     70       PA       C115     cD       0.139750E-01   12.0100           0
      9360 MEMB     70       PA       H15R     hL       0.929200E-02   1.00800           0
      9361 MEMB     70       PA       H15S     hL       0.929200E-02   1.00800           0
      9362 MEMB     70       PA       C114     cD      -0.200860E-01   12.0100           0
      9363 MEMB     70       PA       H14R     hL       0.159290E-01   1.00800           0
      9364 MEMB     70       PA       H14S     hL       0.159290E-01   1.00800           0
      9365 MEMB     70       PA       C113     cD      -0.330960E-01   12.0100           0
      9366 MEMB     70       PA       H13R     hL       0.146210E-01   1.00800           0
      9367 MEMB     70       PA       H13S     hL       0.146210E-01   1.00800           0
      9368 MEMB     70       PA       C112     cD      -0.276330E-01   12.0100           0
      9369 MEMB     70       PA       H12R     hL       0.113680E-01   1.00800           0
      9370 MEMB     70       PA       H12S     hL       0.113680E-01   1.00800           0
      9371 MEMB     70       PA       C111     cD      -0.252060E-01   12.0100           0
      9372 MEMB     70       PA       H11R     hL       0.143340E-01   1.00800           0
      9373 MEMB     70       PA       H11S     hL       0.143340E-01   1.00800           0
      9374 MEMB     70       PA       C110     cD      -0.288310E-01   12.0100           0
      9375 MEMB     70       PA       H10R     hL       0.146910E-01   1.00800           0
      9376 MEMB     70       PA       H10S     hL       0.146910E-01   1.00800           0
      9377 MEMB     70       PA       C19      cD      -0.304720E-01   12.0100           0
      9378 MEMB     70       PA       H9R      hL       0.138970E-01   1.00800           0
      9379 MEMB     70       PA       H9S      hL       0.138970E-01   1.00800           0
      9380 MEMB     70       PA       C18      cD      -0.157930E-01   12.0100           0
      9381 MEMB     70       PA       H8R      hL       0.906700E-02   1.00800           0
      9382 MEMB     70       PA       H8S      hL       0.906700E-02   1.00800           0
      9383 MEMB     70       PA       C17      cD      -0.196300E-01   12.0100           0
      9384 MEMB     70       PA       H7R      hL       0.110410E-01   1.00800           0
      9385 MEMB     70       PA       H7S      hL       0.110410E-01   1.00800           0
      9386 MEMB     70       PA       C16      cD      -0.244270E-01   12.0100           0
      9387 MEMB     70       PA       H6R      hL       0.133340E-01   1.00800           0
      9388 MEMB     70       PA       H6S      hL       0.133340E-01   1.00800           0
      9389 MEMB     70       PA       C15      cD      -0.293870E-01   12.0100           0
      9390 MEMB     70       PA       H5R      hL       0.167630E-01   1.00800           0
      9391 MEMB     70       PA       H5S      hL       0.167630E-01   1.00800           0
      9392 MEMB     70       PA       C14      cD      -0.300990E-01   12.0100           0
      9393 MEMB     70       PA       H4R      hL       0.208770E-01   1.00800           0
      9394 MEMB     70       PA       H4S      hL       0.208770E-01   1.00800           0
      9395 MEMB     70       PA       C13      cD      -0.488200E-02   12.0100           0
      9396 MEMB     70       PA       H3R      hL       0.190070E-01   1.00800           0
      9397 MEMB     70       PA       H3S      hL       0.190070E-01   1.00800           0
      9398 MEMB     70       PA       C12      cD      -0.149259       12.0100           0
      9399 MEMB     70       PA       H2R      hL       0.473450E-01   1.00800           0
      9400 MEMB     70       PA       H2S      hL       0.473450E-01   1.00800           0
      9401 MEMB     70       PC       C11      cC       0.910403       12.0100           0
      9402 MEMB     70       PC       O12      oC      -0.671566       16.0000           0
      9403 MEMB     70       PC       O11      oS      -0.575489       16.0000           0
      9404 MEMB     70       PC       C1       cA       0.196939       12.0100           0
      9405 MEMB     70       PC       HR       hE       0.704690E-01   1.00800           0
      9406 MEMB     70       PC       HS       hE       0.704690E-01   1.00800           0
      9407 MEMB     70       PC       C2       cA       0.281242       12.0100           0
      9408 MEMB     70       PC       HX       hE       0.632530E-01   1.00800           0
      9409 MEMB     70       PC       C3       cA       0.174590E-01   12.0100           0
      9410 MEMB     70       PC       HA       hE       0.955910E-01   1.00800           0
      9411 MEMB     70       PC       HB       hE       0.955910E-01   1.00800           0
      9412 MEMB     70       PC       O31      oT      -0.509480       16.0000           0
      9413 MEMB     70       PC       P31      pA       1.339721       30.9700           0
      9414 MEMB     70       PC       O32      oT      -0.508176       16.0000           0
      9415 MEMB     70       PC       C31      cA       0.166801       12.0100           0
      9416 MEMB     70       PC       H1A      hE       0.785340E-01   1.00800           0
      9417 MEMB     70       PC       H1B      hE       0.785340E-01   1.00800           0
      9418 MEMB     70       PC       C32      cA      -0.170824       12.0100           0
      9419 MEMB     70       PC       H2A      hX       0.136415       1.00800           0
      9420 MEMB     70       PC       H2B      hX       0.136415       1.00800           0
      9421 MEMB     70       PC       N31      nA       0.245262       14.0100           0
      9422 MEMB     70       PC       C33      cA      -0.338973       12.0100           0
      9423 MEMB     70       PC       H3A      hX       0.172230       1.00800           0
      9424 MEMB     70       PC       H3B      hX       0.172230       1.00800           0
      9425 MEMB     70       PC       H3C      hX       0.172230       1.00800           0
      9426 MEMB     70       PC       C34      cA      -0.338973       12.0100           0
      9427 MEMB     70       PC       H4A      hX       0.172230       1.00800           0
      9428 MEMB     70       PC       H4B      hX       0.172230       1.00800           0
      9429 MEMB     70       PC       H4C      hX       0.172230       1.00800           0
      9430 MEMB     70       PC       C35      cA      -0.338973       12.0100           0
      9431 MEMB     70       PC       H5A      hX       0.172230       1.00800           0
      9432 MEMB     70       PC       H5B      hX       0.172230       1.00800           0
      9433 MEMB     70       PC       H5C      hX       0.172230       1.00800           0
      9434 MEMB     70       PC       O33      oP      -0.875812       16.0000           0
      9435 MEMB     70       PC       O34      oP      -0.875812       16.0000           0
      9436 MEMB     70       PC       O21      oS      -0.552948       16.0000           0
      9437 MEMB     70       PC       C21      cC       0.897613       12.0100           0
      9438 MEMB     70       PC       O22      oC      -0.673755       16.0000           0
      9439 MEMB     70       OL       C12      cD      -0.143418       12.0100           0
      9440 MEMB     70       OL       H2R      hL       0.428610E-01   1.00800           0
      9441 MEMB     70       OL       H2S      hL       0.428610E-01   1.00800           0
      9442 MEMB     70       OL       C13      cD       0.161900E-02   12.0100           0
      9443 MEMB     70       OL       H3R      hL       0.195290E-01   1.00800           0
      9444 MEMB     70       OL       H3S      hL       0.195290E-01   1.00800           0
      9445 MEMB     70       OL       C14      cD      -0.229600E-01   12.0100           0
      9446 MEMB     70       OL       H4R      hL       0.181340E-01   1.00800           0
      9447 MEMB     70       OL       H4S      hL       0.181340E-01   1.00800           0
      9448 MEMB     70       OL       C15      cD      -0.166920E-01   12.0100           0
      9449 MEMB     70       OL       H5R      hL       0.869000E-02   1.00800           0
      9450 MEMB     70       OL       H5S      hL       0.869000E-02   1.00800           0
      9451 MEMB     70       OL       C16      cD      -0.237890E-01   12.0100           0
      9452 MEMB     70       OL       H6R      hL       0.926600E-02   1.00800           0
      9453 MEMB     70       OL       H6S      hL       0.926600E-02   1.00800           0
      9454 MEMB     70       OL       C17      cD      -0.174950E-01   12.0100           0
      9455 MEMB     70       OL       H7R      hL       0.195980E-01   1.00800           0
      9456 MEMB     70       OL       H7S      hL       0.195980E-01   1.00800           0
      9457 MEMB     70       OL       C18      cD       0.317750E-01   12.0100           0
      9458 MEMB     70       OL       H8R      hL       0.326850E-01   1.00800           0
      9459 MEMB     70       OL       H8S      hL       0.326850E-01   1.00800           0
      9460 MEMB     70       OL       C19      cB      -0.244228       12.0100           0
      9461 MEMB     70       OL       H9R      hB       0.131512       1.00800           0
      9462 MEMB     70       OL       C110     cB      -0.239284       12.0100           0
      9463 MEMB     70       OL       H10R     hB       0.126878       1.00800           0
      9464 MEMB     70       OL       C111     cD       0.290590E-01   12.0100           0
      9465 MEMB     70       OL       H11R     hL       0.335310E-01   1.00800           0
      9466 MEMB     70       OL       H11S     hL       0.335310E-01   1.00800           0
      9467 MEMB     70       OL       C112     cD      -0.263530E-01   12.0100           0
      9468 MEMB     70       OL       H12R     hL       0.197170E-01   1.00800           0
      9469 MEMB     70       OL       H12S     hL       0.197170E-01   1.00800           0
      9470 MEMB     70       OL       C113     cD      -0.182570E-01   12.0100           0
      9471 MEMB     70       OL       H13R     hL       0.138000E-01   1.00800           0
      9472 MEMB     70       OL       H13S     hL       0.138000E-01   1.00800           0
      9473 MEMB     70       OL       C114     cD      -0.248490E-01   12.0100           0
      9474 MEMB     70       OL       H14R     hL       0.857200E-02   1.00800           0
      9475 MEMB     70       OL       H14S     hL       0.857200E-02   1.00800           0
      9476 MEMB     70       OL       C115     cD      -0.232470E-01   12.0100           0
      9477 MEMB     70       OL       H15R     hL       0.104030E-01   1.00800           0
      9478 MEMB     70       OL       H15S     hL       0.104030E-01   1.00800           0
      9479 MEMB     70       OL       C116     cD      -0.124880E-01   12.0100           0
      9480 MEMB     70       OL       H16R     hL       0.136590E-01   1.00800           0
      9481 MEMB     70       OL       H16S     hL       0.136590E-01   1.00800           0
      9482 MEMB     70       OL       C117     cD       0.868400E-02   12.0100           0
      9483 MEMB     70       OL       H17R     hL       0.100260E-01   1.00800           0
      9484 MEMB     70       OL       H17S     hL       0.100260E-01   1.00800           0
      9485 MEMB     70       OL       C118     cD      -0.117290       12.0100           0
      9486 MEMB     70       OL       H18R     hL       0.266270E-01   1.00800           0
      9487 MEMB     70       OL       H18S     hL       0.266270E-01   1.00800           0
      9488 MEMB     70       OL       H18T     hL       0.266270E-01   1.00800           0
      9489 MEMB     71       PA       C116     cD      -0.125447       12.0100           0
      9490 MEMB     71       PA       H16R     hL       0.290470E-01   1.00800           0
      9491 MEMB     71       PA       H16S     hL       0.290470E-01   1.00800           0
      9492 MEMB     71       PA       H16T     hL       0.290470E-01   1.00800           0
      9493 MEMB     71       PA       C115     cD       0.139750E-01   12.0100           0
      9494 MEMB     71       PA       H15R     hL       0.929200E-02   1.00800           0
      9495 MEMB     71       PA       H15S     hL       0.929200E-02   1.00800           0
      9496 MEMB     71       PA       C114     cD      -0.200860E-01   12.0100           0
      9497 MEMB     71       PA       H14R     hL       0.159290E-01   1.00800           0
      9498 MEMB     71       PA       H14S     hL       0.159290E-01   1.00800           0
      9499 MEMB     71       PA       C113     cD      -0.330960E-01   12.0100           0
      9500 MEMB     71       PA       H13R     hL       0.146210E-01   1.00800           0
      9501 MEMB     71       PA       H13S     hL       0.146210E-01   1.00800           0
      9502 MEMB     71       PA       C112     cD      -0.276330E-01   12.0100           0
      9503 MEMB     71       PA       H12R     hL       0.113680E-01   1.00800           0
      9504 MEMB     71       PA       H12S     hL       0.113680E-01   1.00800           0
      9505 MEMB     71       PA       C111     cD      -0.252060E-01   12.0100           0
      9506 MEMB     71       PA       H11R     hL       0.143340E-01   1.00800           0
      9507 MEMB     71       PA       H11S     hL       0.143340E-01   1.00800           0
      9508 MEMB     71       PA       C110     cD      -0.288310E-01   12.0100           0
      9509 MEMB     71       PA       H10R     hL       0.146910E-01   1.00800           0
      9510 MEMB     71       PA       H10S     hL       0.146910E-01   1.00800           0
      9511 MEMB     71       PA       C19      cD      -0.304720E-01   12.0100           0
      9512 MEMB     71       PA       H9R      hL       0.138970E-01   1.00800           0
      9513 MEMB     71       PA       H9S      hL       0.138970E-01   1.00800           0
      9514 MEMB     71       PA       C18      cD      -0.157930E-01   12.0100           0
      9515 MEMB     71       PA       H8R      hL       0.906700E-02   1.00800           0
      9516 MEMB     71       PA       H8S      hL       0.906700E-02   1.00800           0
      9517 MEMB     71       PA       C17      cD      -0.196300E-01   12.0100           0
      9518 MEMB     71       PA       H7R      hL       0.110410E-01   1.00800           0
      9519 MEMB     71       PA       H7S      hL       0.110410E-01   1.00800           0
      9520 MEMB     71       PA       C16      cD      -0.244270E-01   12.0100           0
      9521 MEMB     71       PA       H6R      hL       0.133340E-01   1.00800           0
      9522 MEMB     71       PA       H6S      hL       0.133340E-01   1.00800           0
      9523 MEMB     71       PA       C15      cD      -0.293870E-01   12.0100           0
      9524 MEMB     71       PA       H5R      hL       0.167630E-01   1.00800           0
      9525 MEMB     71       PA       H5S      hL       0.167630E-01   1.00800           0
      9526 MEMB     71       PA       C14      cD      -0.300990E-01   12.0100           0
      9527 MEMB     71       PA       H4R      hL       0.208770E-01   1.00800           0
      9528 MEMB     71       PA       H4S      hL       0.208770E-01   1.00800           0
      9529 MEMB     71       PA       C13      cD      -0.488200E-02   12.0100           0
      9530 MEMB     71       PA       H3R      hL       0.190070E-01   1.00800           0
      9531 MEMB     71       PA       H3S      hL       0.190070E-01   1.00800           0
      9532 MEMB     71       PA       C12      cD      -0.149259       12.0100           0
      9533 MEMB     71       PA       H2R      hL       0.473450E-01   1.00800           0
      9534 MEMB     71       PA       H2S      hL       0.473450E-01   1.00800           0
      9535 MEMB     71       PC       C11      cC       0.910403       12.0100           0
      9536 MEMB     71       PC       O12      oC      -0.671566       16.0000           0
      9537 MEMB     71       PC       O11      oS      -0.575489       16.0000           0
      9538 MEMB     71       PC       C1       cA       0.196939       12.0100           0
      9539 MEMB     71       PC       HR       hE       0.704690E-01   1.00800           0
      9540 MEMB     71       PC       HS       hE       0.704690E-01   1.00800           0
      9541 MEMB     71       PC       C2       cA       0.281242       12.0100           0
      9542 MEMB     71       PC       HX       hE       0.632530E-01   1.00800           0
      9543 MEMB     71       PC       C3       cA       0.174590E-01   12.0100           0
      9544 MEMB     71       PC       HA       hE       0.955910E-01   1.00800           0
      9545 MEMB     71       PC       HB       hE       0.955910E-01   1.00800           0
      9546 MEMB     71       PC       O31      oT      -0.509480       16.0000           0
      9547 MEMB     71       PC       P31      pA       1.339721       30.9700           0
      9548 MEMB     71       PC       O32      oT      -0.508176       16.0000           0
      9549 MEMB     71       PC       C31      cA       0.166801       12.0100           0
      9550 MEMB     71       PC       H1A      hE       0.785340E-01   1.00800           0
      9551 MEMB     71       PC       H1B      hE       0.785340E-01   1.00800           0
      9552 MEMB     71       PC       C32      cA      -0.170824       12.0100           0
      9553 MEMB     71       PC       H2A      hX       0.136415       1.00800           0
      9554 MEMB     71       PC       H2B      hX       0.136415       1.00800           0
      9555 MEMB     71       PC       N31      nA       0.245262       14.0100           0
      9556 MEMB     71       PC       C33      cA      -0.338973       12.0100           0
      9557 MEMB     71       PC       H3A      hX       0.172230       1.00800           0
      9558 MEMB     71       PC       H3B      hX       0.172230       1.00800           0
      9559 MEMB     71       PC       H3C      hX       0.172230       1.00800           0
      9560 MEMB     71       PC       C34      cA      -0.338973       12.0100           0
      9561 MEMB     71       PC       H4A      hX       0.172230       1.00800           0
      9562 MEMB     71       PC       H4B      hX       0.172230       1.00800           0
      9563 MEMB     71       PC       H4C      hX       0.172230       1.00800           0
      9564 MEMB     71       PC       C35      cA      -0.338973       12.0100           0
      9565 MEMB     71       PC       H5A      hX       0.172230       1.00800           0
      9566 MEMB     71       PC       H5B      hX       0.172230       1.00800           0
      9567 MEMB     71       PC       H5C      hX       0.172230       1.00800           0
      9568 MEMB     71       PC       O33      oP      -0.875812       16.0000           0
      9569 MEMB     71       PC       O34      oP      -0.875812       16.0000           0
      9570 MEMB     71       PC       O21      oS      -0.552948       16.0000           0
      9571 MEMB     71       PC       C21      cC       0.897613       12.0100           0
      9572 MEMB     71       PC       O22      oC      -0.673755       16.0000           0
      9573 MEMB     71       OL       C12      cD      -0.143418       12.0100           0
      9574 MEMB     71       OL       H2R      hL       0.428610E-01   1.00800           0
      9575 MEMB     71       OL       H2S      hL       0.428610E-01   1.00800           0
      9576 MEMB     71       OL       C13      cD       0.161900E-02   12.0100           0
      9577 MEMB     71       OL       H3R      hL       0.195290E-01   1.00800           0
      9578 MEMB     71       OL       H3S      hL       0.195290E-01   1.00800           0
      9579 MEMB     71       OL       C14      cD      -0.229600E-01   12.0100           0
      9580 MEMB     71       OL       H4R      hL       0.181340E-01   1.00800           0
      9581 MEMB     71       OL       H4S      hL       0.181340E-01   1.00800           0
      9582 MEMB     71       OL       C15      cD      -0.166920E-01   12.0100           0
      9583 MEMB     71       OL       H5R      hL       0.869000E-02   1.00800           0
      9584 MEMB     71       OL       H5S      hL       0.869000E-02   1.00800           0
      9585 MEMB     71       OL       C16      cD      -0.237890E-01   12.0100           0
      9586 MEMB     71       OL       H6R      hL       0.926600E-02   1.00800           0
      9587 MEMB     71       OL       H6S      hL       0.926600E-02   1.00800           0
      9588 MEMB     71       OL       C17      cD      -0.174950E-01   12.0100           0
      9589 MEMB     71       OL       H7R      hL       0.195980E-01   1.00800           0
      9590 MEMB     71       OL       H7S      hL       0.195980E-01   1.00800           0
      9591 MEMB     71       OL       C18      cD       0.317750E-01   12.0100           0
      9592 MEMB     71       OL       H8R      hL       0.326850E-01   1.00800           0
      9593 MEMB     71       OL       H8S      hL       0.326850E-01   1.00800           0
      9594 MEMB     71       OL       C19      cB      -0.244228       12.0100           0
      9595 MEMB     71       OL       H9R      hB       0.131512       1.00800           0
      9596 MEMB     71       OL       C110     cB      -0.239284       12.0100           0
      9597 MEMB     71       OL       H10R     hB       0.126878       1.00800           0
      9598 MEMB     71       OL       C111     cD       0.290590E-01   12.0100           0
      9599 MEMB     71       OL       H11R     hL       0.335310E-01   1.00800           0
      9600 MEMB     71       OL       H11S     hL       0.335310E-01   1.00800           0
      9601 MEMB     71       OL       C112     cD      -0.263530E-01   12.0100           0
      9602 MEMB     71       OL       H12R     hL       0.197170E-01   1.00800           0
      9603 MEMB     71       OL       H12S     hL       0.197170E-01   1.00800           0
      9604 MEMB     71       OL       C113     cD      -0.182570E-01   12.0100           0
      9605 MEMB     71       OL       H13R     hL       0.138000E-01   1.00800           0
      9606 MEMB     71       OL       H13S     hL       0.138000E-01   1.00800           0
      9607 MEMB     71       OL       C114     cD      -0.248490E-01   12.0100           0
      9608 MEMB     71       OL       H14R     hL       0.857200E-02   1.00800           0
      9609 MEMB     71       OL       H14S     hL       0.857200E-02   1.00800           0
      9610 MEMB     71       OL       C115     cD      -0.232470E-01   12.0100           0
      9611 MEMB     71       OL       H15R     hL       0.104030E-01   1.00800           0
      9612 MEMB     71       OL       H15S     hL       0.104030E-01   1.00800           0
      9613 MEMB     71       OL       C116     cD      -0.124880E-01   12.0100           0
      9614 MEMB     71       OL       H16R     hL       0.136590E-01   1.00800           0
      9615 MEMB     71       OL       H16S     hL       0.136590E-01   1.00800           0
      9616 MEMB     71       OL       C117     cD       0.868400E-02   12.0100           0
      9617 MEMB     71       OL       H17R     hL       0.100260E-01   1.00800           0
      9618 MEMB     71       OL       H17S     hL       0.100260E-01   1.00800           0
      9619 MEMB     71       OL       C118     cD      -0.117290       12.0100           0
      9620 MEMB     71       OL       H18R     hL       0.266270E-01   1.00800           0
      9621 MEMB     71       OL       H18S     hL       0.266270E-01   1.00800           0
      9622 MEMB     71       OL       H18T     hL       0.266270E-01   1.00800           0
      9623 MEMB     72       PA       C116     cD      -0.125447       12.0100           0
      9624 MEMB     72       PA       H16R     hL       0.290470E-01   1.00800           0
      9625 MEMB     72       PA       H16S     hL       0.290470E-01   1.00800           0
      9626 MEMB     72       PA       H16T     hL       0.290470E-01   1.00800           0
      9627 MEMB     72       PA       C115     cD       0.139750E-01   12.0100           0
      9628 MEMB     72       PA       H15R     hL       0.929200E-02   1.00800           0
      9629 MEMB     72       PA       H15S     hL       0.929200E-02   1.00800           0
      9630 MEMB     72       PA       C114     cD      -0.200860E-01   12.0100           0
      9631 MEMB     72       PA       H14R     hL       0.159290E-01   1.00800           0
      9632 MEMB     72       PA       H14S     hL       0.159290E-01   1.00800           0
      9633 MEMB     72       PA       C113     cD      -0.330960E-01   12.0100           0
      9634 MEMB     72       PA       H13R     hL       0.146210E-01   1.00800           0
      9635 MEMB     72       PA       H13S     hL       0.146210E-01   1.00800           0
      9636 MEMB     72       PA       C112     cD      -0.276330E-01   12.0100           0
      9637 MEMB     72       PA       H12R     hL       0.113680E-01   1.00800           0
      9638 MEMB     72       PA       H12S     hL       0.113680E-01   1.00800           0
      9639 MEMB     72       PA       C111     cD      -0.252060E-01   12.0100           0
      9640 MEMB     72       PA       H11R     hL       0.143340E-01   1.00800           0
      9641 MEMB     72       PA       H11S     hL       0.143340E-01   1.00800           0
      9642 MEMB     72       PA       C110     cD      -0.288310E-01   12.0100           0
      9643 MEMB     72       PA       H10R     hL       0.146910E-01   1.00800           0
      9644 MEMB     72       PA       H10S     hL       0.146910E-01   1.00800           0
      9645 MEMB     72       PA       C19      cD      -0.304720E-01   12.0100           0
      9646 MEMB     72       PA       H9R      hL       0.138970E-01   1.00800           0
      9647 MEMB     72       PA       H9S      hL       0.138970E-01   1.00800           0
      9648 MEMB     72       PA       C18      cD      -0.157930E-01   12.0100           0
      9649 MEMB     72       PA       H8R      hL       0.906700E-02   1.00800           0
      9650 MEMB     72       PA       H8S      hL       0.906700E-02   1.00800           0
      9651 MEMB     72       PA       C17      cD      -0.196300E-01   12.0100           0
      9652 MEMB     72       PA       H7R      hL       0.110410E-01   1.00800           0
      9653 MEMB     72       PA       H7S      hL       0.110410E-01   1.00800           0
      9654 MEMB     72       PA       C16      cD      -0.244270E-01   12.0100           0
      9655 MEMB     72       PA       H6R      hL       0.133340E-01   1.00800           0
      9656 MEMB     72       PA       H6S      hL       0.133340E-01   1.00800           0
      9657 MEMB     72       PA       C15      cD      -0.293870E-01   12.0100           0
      9658 MEMB     72       PA       H5R      hL       0.167630E-01   1.00800           0
      9659 MEMB     72       PA       H5S      hL       0.167630E-01   1.00800           0
      9660 MEMB     72       PA       C14      cD      -0.300990E-01   12.0100           0
      9661 MEMB     72       PA       H4R      hL       0.208770E-01   1.00800           0
      9662 MEMB     72       PA       H4S      hL       0.208770E-01   1.00800           0
      9663 MEMB     72       PA       C13      cD      -0.488200E-02   12.0100           0
      9664 MEMB     72       PA       H3R      hL       0.190070E-01   1.00800           0
      9665 MEMB     72       PA       H3S      hL       0.190070E-01   1.00800           0
      9666 MEMB     72       PA       C12      cD      -0.149259       12.0100           0
      9667 MEMB     72       PA       H2R      hL       0.473450E-01   1.00800           0
      9668 MEMB     72       PA       H2S      hL       0.473450E-01   1.00800           0
      9669 MEMB     72       PC       C11      cC       0.910403       12.0100           0
      9670 MEMB     72       PC       O12      oC      -0.671566       16.0000           0
      9671 MEMB     72       PC       O11      oS      -0.575489       16.0000           0
      9672 MEMB     72       PC       C1       cA       0.196939       12.0100           0
      9673 MEMB     72       PC       HR       hE       0.704690E-01   1.00800           0
      9674 MEMB     72       PC       HS       hE       0.704690E-01   1.00800           0
      9675 MEMB     72       PC       C2       cA       0.281242       12.0100           0
      9676 MEMB     72       PC       HX       hE       0.632530E-01   1.00800           0
      9677 MEMB     72       PC       C3       cA       0.174590E-01   12.0100           0
      9678 MEMB     72       PC       HA       hE       0.955910E-01   1.00800           0
      9679 MEMB     72       PC       HB       hE       0.955910E-01   1.00800           0
      9680 MEMB     72       PC       O31      oT      -0.509480       16.0000           0
      9681 MEMB     72       PC       P31      pA       1.339721       30.9700           0
      9682 MEMB     72       PC       O32      oT      -0.508176       16.0000           0
      9683 MEMB     72       PC       C31      cA       0.166801       12.0100           0
      9684 MEMB     72       PC       H1A      hE       0.785340E-01   1.00800           0
      9685 MEMB     72       PC       H1B      hE       0.785340E-01   1.00800           0
      9686 MEMB     72       PC       C32      cA      -0.170824       12.0100           0
      9687 MEMB     72       PC       H2A      hX       0.136415       1.00800           0
      9688 MEMB     72       PC       H2B      hX       0.136415       1.00800           0
      9689 MEMB     72       PC       N31      nA       0.245262       14.0100           0
      9690 MEMB     72       PC       C33      cA      -0.338973       12.0100           0
      9691 MEMB     72       PC       H3A      hX       0.172230       1.00800           0
      9692 MEMB     72       PC       H3B      hX       0.172230       1.00800           0
      9693 MEMB     72       PC       H3C      hX       0.172230       1.00800           0
      9694 MEMB     72       PC       C34      cA      -0.338973       12.0100           0
      9695 MEMB     72       PC       H4A      hX       0.172230       1.00800           0
      9696 MEMB     72       PC       H4B      hX       0.172230       1.00800           0
      9697 MEMB     72       PC       H4C      hX       0.172230       1.00800           0
      9698 MEMB     72       PC       C35      cA      -0.338973       12.0100           0
      9699 MEMB     72       PC       H5A      hX       0.172230       1.00800           0
      9700 MEMB     72       PC       H5B      hX       0.172230       1.00800           0
      9701 MEMB     72       PC       H5C      hX       0.172230       1.00800           0
      9702 MEMB     72       PC       O33      oP      -0.875812       16.0000           0
      9703 MEMB     72       PC       O34      oP      -0.875812       16.0000           0
      9704 MEMB     72       PC       O21      oS      -0.552948       16.0000           0
      9705 MEMB     72       PC       C21      cC       0.897613       12.0100           0
      9706 MEMB     72       PC       O22      oC      -0.673755       16.0000           0
      9707 MEMB     72       OL       C12      cD      -0.143418       12.0100           0
      9708 MEMB     72       OL       H2R      hL       0.428610E-01   1.00800           0
      9709 MEMB     72       OL       H2S      hL       0.428610E-01   1.00800           0
      9710 MEMB     72       OL       C13      cD       0.161900E-02   12.0100           0
      9711 MEMB     72       OL       H3R      hL       0.195290E-01   1.00800           0
      9712 MEMB     72       OL       H3S      hL       0.195290E-01   1.00800           0
      9713 MEMB     72       OL       C14      cD      -0.229600E-01   12.0100           0
      9714 MEMB     72       OL       H4R      hL       0.181340E-01   1.00800           0
      9715 MEMB     72       OL       H4S      hL       0.181340E-01   1.00800           0
      9716 MEMB     72       OL       C15      cD      -0.166920E-01   12.0100           0
      9717 MEMB     72       OL       H5R      hL       0.869000E-02   1.00800           0
      9718 MEMB     72       OL       H5S      hL       0.869000E-02   1.00800           0
      9719 MEMB     72       OL       C16      cD      -0.237890E-01   12.0100           0
      9720 MEMB     72       OL       H6R      hL       0.926600E-02   1.00800           0
      9721 MEMB     72       OL       H6S      hL       0.926600E-02   1.00800           0
      9722 MEMB     72       OL       C17      cD      -0.174950E-01   12.0100           0
      9723 MEMB     72       OL       H7R      hL       0.195980E-01   1.00800           0
      9724 MEMB     72       OL       H7S      hL       0.195980E-01   1.00800           0
      9725 MEMB     72       OL       C18      cD       0.317750E-01   12.0100           0
      9726 MEMB     72       OL       H8R      hL       0.326850E-01   1.00800           0
      9727 MEMB     72       OL       H8S      hL       0.326850E-01   1.00800           0
      9728 MEMB     72       OL       C19      cB      -0.244228       12.0100           0
      9729 MEMB     72       OL       H9R      hB       0.131512       1.00800           0
      9730 MEMB     72       OL       C110     cB      -0.239284       12.0100           0
      9731 MEMB     72       OL       H10R     hB       0.126878       1.00800           0
      9732 MEMB     72       OL       C111     cD       0.290590E-01   12.0100           0
      9733 MEMB     72       OL       H11R     hL       0.335310E-01   1.00800           0
      9734 MEMB     72       OL       H11S     hL       0.335310E-01   1.00800           0
      9735 MEMB     72       OL       C112     cD      -0.263530E-01   12.0100           0
      9736 MEMB     72       OL       H12R     hL       0.197170E-01   1.00800           0
      9737 MEMB     72       OL       H12S     hL       0.197170E-01   1.00800           0
      9738 MEMB     72       OL       C113     cD      -0.182570E-01   12.0100           0
      9739 MEMB     72       OL       H13R     hL       0.138000E-01   1.00800           0
      9740 MEMB     72       OL       H13S     hL       0.138000E-01   1.00800           0
      9741 MEMB     72       OL       C114     cD      -0.248490E-01   12.0100           0
      9742 MEMB     72       OL       H14R     hL       0.857200E-02   1.00800           0
      9743 MEMB     72       OL       H14S     hL       0.857200E-02   1.00800           0
      9744 MEMB     72       OL       C115     cD      -0.232470E-01   12.0100           0
      9745 MEMB     72       OL       H15R     hL       0.104030E-01   1.00800           0
      9746 MEMB     72       OL       H15S     hL       0.104030E-01   1.00800           0
      9747 MEMB     72       OL       C116     cD      -0.124880E-01   12.0100           0
      9748 MEMB     72       OL       H16R     hL       0.136590E-01   1.00800           0
      9749 MEMB     72       OL       H16S     hL       0.136590E-01   1.00800           0
      9750 MEMB     72       OL       C117     cD       0.868400E-02   12.0100           0
      9751 MEMB     72       OL       H17R     hL       0.100260E-01   1.00800           0
      9752 MEMB     72       OL       H17S     hL       0.100260E-01   1.00800           0
      9753 MEMB     72       OL       C118     cD      -0.117290       12.0100           0
      9754 MEMB     72       OL       H18R     hL       0.266270E-01   1.00800           0
      9755 MEMB     72       OL       H18S     hL       0.266270E-01   1.00800           0
      9756 MEMB     72       OL       H18T     hL       0.266270E-01   1.00800           0
      9757 MEMB     73       PA       C116     cD      -0.125447       12.0100           0
      9758 MEMB     73       PA       H16R     hL       0.290470E-01   1.00800           0
      9759 MEMB     73       PA       H16S     hL       0.290470E-01   1.00800           0
      9760 MEMB     73       PA       H16T     hL       0.290470E-01   1.00800           0
      9761 MEMB     73       PA       C115     cD       0.139750E-01   12.0100           0
      9762 MEMB     73       PA       H15R     hL       0.929200E-02   1.00800           0
      9763 MEMB     73       PA       H15S     hL       0.929200E-02   1.00800           0
      9764 MEMB     73       PA       C114     cD      -0.200860E-01   12.0100           0
      9765 MEMB     73       PA       H14R     hL       0.159290E-01   1.00800           0
      9766 MEMB     73       PA       H14S     hL       0.159290E-01   1.00800           0
      9767 MEMB     73       PA       C113     cD      -0.330960E-01   12.0100           0
      9768 MEMB     73       PA       H13R     hL       0.146210E-01   1.00800           0
      9769 MEMB     73       PA       H13S     hL       0.146210E-01   1.00800           0
      9770 MEMB     73       PA       C112     cD      -0.276330E-01   12.0100           0
      9771 MEMB     73       PA       H12R     hL       0.113680E-01   1.00800           0
      9772 MEMB     73       PA       H12S     hL       0.113680E-01   1.00800           0
      9773 MEMB     73       PA       C111     cD      -0.252060E-01   12.0100           0
      9774 MEMB     73       PA       H11R     hL       0.143340E-01   1.00800           0
      9775 MEMB     73       PA       H11S     hL       0.143340E-01   1.00800           0
      9776 MEMB     73       PA       C110     cD      -0.288310E-01   12.0100           0
      9777 MEMB     73       PA       H10R     hL       0.146910E-01   1.00800           0
      9778 MEMB     73       PA       H10S     hL       0.146910E-01   1.00800           0
      9779 MEMB     73       PA       C19      cD      -0.304720E-01   12.0100           0
      9780 MEMB     73       PA       H9R      hL       0.138970E-01   1.00800           0
      9781 MEMB     73       PA       H9S      hL       0.138970E-01   1.00800           0
      9782 MEMB     73       PA       C18      cD      -0.157930E-01   12.0100           0
      9783 MEMB     73       PA       H8R      hL       0.906700E-02   1.00800           0
      9784 MEMB     73       PA       H8S      hL       0.906700E-02   1.00800           0
      9785 MEMB     73       PA       C17      cD      -0.196300E-01   12.0100           0
      9786 MEMB     73       PA       H7R      hL       0.110410E-01   1.00800           0
      9787 MEMB     73       PA       H7S      hL       0.110410E-01   1.00800           0
      9788 MEMB     73       PA       C16      cD      -0.244270E-01   12.0100           0
      9789 MEMB     73       PA       H6R      hL       0.133340E-01   1.00800           0
      9790 MEMB     73       PA       H6S      hL       0.133340E-01   1.00800           0
      9791 MEMB     73       PA       C15      cD      -0.293870E-01   12.0100           0
      9792 MEMB     73       PA       H5R      hL       0.167630E-01   1.00800           0
      9793 MEMB     73       PA       H5S      hL       0.167630E-01   1.00800           0
      9794 MEMB     73       PA       C14      cD      -0.300990E-01   12.0100           0
      9795 MEMB     73       PA       H4R      hL       0.208770E-01   1.00800           0
      9796 MEMB     73       PA       H4S      hL       0.208770E-01   1.00800           0
      9797 MEMB     73       PA       C13      cD      -0.488200E-02   12.0100           0
      9798 MEMB     73       PA       H3R      hL       0.190070E-01   1.00800           0
      9799 MEMB     73       PA       H3S      hL       0.190070E-01   1.00800           0
      9800 MEMB     73       PA       C12      cD      -0.149259       12.0100           0
      9801 MEMB     73       PA       H2R      hL       0.473450E-01   1.00800           0
      9802 MEMB     73       PA       H2S      hL       0.473450E-01   1.00800           0
      9803 MEMB     73       PC       C11      cC       0.910403       12.0100           0
      9804 MEMB     73       PC       O12      oC      -0.671566       16.0000           0
      9805 MEMB     73       PC       O11      oS      -0.575489       16.0000           0
      9806 MEMB     73       PC       C1       cA       0.196939       12.0100           0
      9807 MEMB     73       PC       HR       hE       0.704690E-01   1.00800           0
      9808 MEMB     73       PC       HS       hE       0.704690E-01   1.00800           0
      9809 MEMB     73       PC       C2       cA       0.281242       12.0100           0
      9810 MEMB     73       PC       HX       hE       0.632530E-01   1.00800           0
      9811 MEMB     73       PC       C3       cA       0.174590E-01   12.0100           0
      9812 MEMB     73       PC       HA       hE       0.955910E-01   1.00800           0
      9813 MEMB     73       PC       HB       hE       0.955910E-01   1.00800           0
      9814 MEMB     73       PC       O31      oT      -0.509480       16.0000           0
      9815 MEMB     73       PC       P31      pA       1.339721       30.9700           0
      9816 MEMB     73       PC       O32      oT      -0.508176       16.0000           0
      9817 MEMB     73       PC       C31      cA       0.166801       12.0100           0
      9818 MEMB     73       PC       H1A      hE       0.785340E-01   1.00800           0
      9819 MEMB     73       PC       H1B      hE       0.785340E-01   1.00800           0
      9820 MEMB     73       PC       C32      cA      -0.170824       12.0100           0
      9821 MEMB     73       PC       H2A      hX       0.136415       1.00800           0
      9822 MEMB     73       PC       H2B      hX       0.136415       1.00800           0
      9823 MEMB     73       PC       N31      nA       0.245262       14.0100           0
      9824 MEMB     73       PC       C33      cA      -0.338973       12.0100           0
      9825 MEMB     73       PC       H3A      hX       0.172230       1.00800           0
      9826 MEMB     73       PC       H3B      hX       0.172230       1.00800           0
      9827 MEMB     73       PC       H3C      hX       0.172230       1.00800           0
      9828 MEMB     73       PC       C34      cA      -0.338973       12.0100           0
      9829 MEMB     73       PC       H4A      hX       0.172230       1.00800           0
      9830 MEMB     73       PC       H4B      hX       0.172230       1.00800           0
      9831 MEMB     73       PC       H4C      hX       0.172230       1.00800           0
      9832 MEMB     73       PC       C35      cA      -0.338973       12.0100           0
      9833 MEMB     73       PC       H5A      hX       0.172230       1.00800           0
      9834 MEMB     73       PC       H5B      hX       0.172230       1.00800           0
      9835 MEMB     73       PC       H5C      hX       0.172230       1.00800           0
      9836 MEMB     73       PC       O33      oP      -0.875812       16.0000           0
      9837 MEMB     73       PC       O34      oP      -0.875812       16.0000           0
      9838 MEMB     73       PC       O21      oS      -0.552948       16.0000           0
      9839 MEMB     73       PC       C21      cC       0.897613       12.0100           0
      9840 MEMB     73       PC       O22      oC      -0.673755       16.0000           0
      9841 MEMB     73       OL       C12      cD      -0.143418       12.0100           0
      9842 MEMB     73       OL       H2R      hL       0.428610E-01   1.00800           0
      9843 MEMB     73       OL       H2S      hL       0.428610E-01   1.00800           0
      9844 MEMB     73       OL       C13      cD       0.161900E-02   12.0100           0
      9845 MEMB     73       OL       H3R      hL       0.195290E-01   1.00800           0
      9846 MEMB     73       OL       H3S      hL       0.195290E-01   1.00800           0
      9847 MEMB     73       OL       C14      cD      -0.229600E-01   12.0100           0
      9848 MEMB     73       OL       H4R      hL       0.181340E-01   1.00800           0
      9849 MEMB     73       OL       H4S      hL       0.181340E-01   1.00800           0
      9850 MEMB     73       OL       C15      cD      -0.166920E-01   12.0100           0
      9851 MEMB     73       OL       H5R      hL       0.869000E-02   1.00800           0
      9852 MEMB     73       OL       H5S      hL       0.869000E-02   1.00800           0
      9853 MEMB     73       OL       C16      cD      -0.237890E-01   12.0100           0
      9854 MEMB     73       OL       H6R      hL       0.926600E-02   1.00800           0
      9855 MEMB     73       OL       H6S      hL       0.926600E-02   1.00800           0
      9856 MEMB     73       OL       C17      cD      -0.174950E-01   12.0100           0
      9857 MEMB     73       OL       H7R      hL       0.195980E-01   1.00800           0
      9858 MEMB     73       OL       H7S      hL       0.195980E-01   1.00800           0
      9859 MEMB     73       OL       C18      cD       0.317750E-01   12.0100           0
      9860 MEMB     73       OL       H8R      hL       0.326850E-01   1.00800           0
      9861 MEMB     73       OL       H8S      hL       0.326850E-01   1.00800           0
      9862 MEMB     73       OL       C19      cB      -0.244228       12.0100           0
      9863 MEMB     73       OL       H9R      hB       0.131512       1.00800           0
      9864 MEMB     73       OL       C110     cB      -0.239284       12.0100           0
      9865 MEMB     73       OL       H10R     hB       0.126878       1.00800           0
      9866 MEMB     73       OL       C111     cD       0.290590E-01   12.0100           0
      9867 MEMB     73       OL       H11R     hL       0.335310E-01   1.00800           0
      9868 MEMB     73       OL       H11S     hL       0.335310E-01   1.00800           0
      9869 MEMB     73       OL       C112     cD      -0.263530E-01   12.0100           0
      9870 MEMB     73       OL       H12R     hL       0.197170E-01   1.00800           0
      9871 MEMB     73       OL       H12S     hL       0.197170E-01   1.00800           0
      9872 MEMB     73       OL       C113     cD      -0.182570E-01   12.0100           0
      9873 MEMB     73       OL       H13R     hL       0.138000E-01   1.00800           0
      9874 MEMB     73       OL       H13S     hL       0.138000E-01   1.00800           0
      9875 MEMB     73       OL       C114     cD      -0.248490E-01   12.0100           0
      9876 MEMB     73       OL       H14R     hL       0.857200E-02   1.00800           0
      9877 MEMB     73       OL       H14S     hL       0.857200E-02   1.00800           0
      9878 MEMB     73       OL       C115     cD      -0.232470E-01   12.0100           0
      9879 MEMB     73       OL       H15R     hL       0.104030E-01   1.00800           0
      9880 MEMB     73       OL       H15S     hL       0.104030E-01   1.00800           0
      9881 MEMB     73       OL       C116     cD      -0.124880E-01   12.0100           0
      9882 MEMB     73       OL       H16R     hL       0.136590E-01   1.00800           0
      9883 MEMB     73       OL       H16S     hL       0.136590E-01   1.00800           0
      9884 MEMB     73       OL       C117     cD       0.868400E-02   12.0100           0
      9885 MEMB     73       OL       H17R     hL       0.100260E-01   1.00800           0
      9886 MEMB     73       OL       H17S     hL       0.100260E-01   1.00800           0
      9887 MEMB     73       OL       C118     cD      -0.117290       12.0100           0
      9888 MEMB     73       OL       H18R     hL       0.266270E-01   1.00800           0
      9889 MEMB     73       OL       H18S     hL       0.266270E-01   1.00800           0
      9890 MEMB     73       OL       H18T     hL       0.266270E-01   1.00800           0
      9891 MEMB     74       PA       C116     cD      -0.125447       12.0100           0
      9892 MEMB     74       PA       H16R     hL       0.290470E-01   1.00800           0
      9893 MEMB     74       PA       H16S     hL       0.290470E-01   1.00800           0
      9894 MEMB     74       PA       H16T     hL       0.290470E-01   1.00800           0
      9895 MEMB     74       PA       C115     cD       0.139750E-01   12.0100           0
      9896 MEMB     74       PA       H15R     hL       0.929200E-02   1.00800           0
      9897 MEMB     74       PA       H15S     hL       0.929200E-02   1.00800           0
      9898 MEMB     74       PA       C114     cD      -0.200860E-01   12.0100           0
      9899 MEMB     74       PA       H14R     hL       0.159290E-01   1.00800           0
      9900 MEMB     74       PA       H14S     hL       0.159290E-01   1.00800           0
      9901 MEMB     74       PA       C113     cD      -0.330960E-01   12.0100           0
      9902 MEMB     74       PA       H13R     hL       0.146210E-01   1.00800           0
      9903 MEMB     74       PA       H13S     hL       0.146210E-01   1.00800           0
      9904 MEMB     74       PA       C112     cD      -0.276330E-01   12.0100           0
      9905 MEMB     74       PA       H12R     hL       0.113680E-01   1.00800           0
      9906 MEMB     74       PA       H12S     hL       0.113680E-01   1.00800           0
      9907 MEMB     74       PA       C111     cD      -0.252060E-01   12.0100           0
      9908 MEMB     74       PA       H11R     hL       0.143340E-01   1.00800           0
      9909 MEMB     74       PA       H11S     hL       0.143340E-01   1.00800           0
      9910 MEMB     74       PA       C110     cD      -0.288310E-01   12.0100           0
      9911 MEMB     74       PA       H10R     hL       0.146910E-01   1.00800           0
      9912 MEMB     74       PA       H10S     hL       0.146910E-01   1.00800           0
      9913 MEMB     74       PA       C19      cD      -0.304720E-01   12.0100           0
      9914 MEMB     74       PA       H9R      hL       0.138970E-01   1.00800           0
      9915 MEMB     74       PA       H9S      hL       0.138970E-01   1.00800           0
      9916 MEMB     74       PA       C18      cD      -0.157930E-01   12.0100           0
      9917 MEMB     74       PA       H8R      hL       0.906700E-02   1.00800           0
      9918 MEMB     74       PA       H8S      hL       0.906700E-02   1.00800           0
      9919 MEMB     74       PA       C17      cD      -0.196300E-01   12.0100           0
      9920 MEMB     74       PA       H7R      hL       0.110410E-01   1.00800           0
      9921 MEMB     74       PA       H7S      hL       0.110410E-01   1.00800           0
      9922 MEMB     74       PA       C16      cD      -0.244270E-01   12.0100           0
      9923 MEMB     74       PA       H6R      hL       0.133340E-01   1.00800           0
      9924 MEMB     74       PA       H6S      hL       0.133340E-01   1.00800           0
      9925 MEMB     74       PA       C15      cD      -0.293870E-01   12.0100           0
      9926 MEMB     74       PA       H5R      hL       0.167630E-01   1.00800           0
      9927 MEMB     74       PA       H5S      hL       0.167630E-01   1.00800           0
      9928 MEMB     74       PA       C14      cD      -0.300990E-01   12.0100           0
      9929 MEMB     74       PA       H4R      hL       0.208770E-01   1.00800           0
      9930 MEMB     74       PA       H4S      hL       0.208770E-01   1.00800           0
      9931 MEMB     74       PA       C13      cD      -0.488200E-02   12.0100           0
      9932 MEMB     74       PA       H3R      hL       0.190070E-01   1.00800           0
      9933 MEMB     74       PA       H3S      hL       0.190070E-01   1.00800           0
      9934 MEMB     74       PA       C12      cD      -0.149259       12.0100           0
      9935 MEMB     74       PA       H2R      hL       0.473450E-01   1.00800           0
      9936 MEMB     74       PA       H2S      hL       0.473450E-01   1.00800           0
      9937 MEMB     74       PC       C11      cC       0.910403       12.0100           0
      9938 MEMB     74       PC       O12      oC      -0.671566       16.0000           0
      9939 MEMB     74       PC       O11      oS      -0.575489       16.0000           0
      9940 MEMB     74       PC       C1       cA       0.196939       12.0100           0
      9941 MEMB     74       PC       HR       hE       0.704690E-01   1.00800           0
      9942 MEMB     74       PC       HS       hE       0.704690E-01   1.00800           0
      9943 MEMB     74       PC       C2       cA       0.281242       12.0100           0
      9944 MEMB     74       PC       HX       hE       0.632530E-01   1.00800           0
      9945 MEMB     74       PC       C3       cA       0.174590E-01   12.0100           0
      9946 MEMB     74       PC       HA       hE       0.955910E-01   1.00800           0
      9947 MEMB     74       PC       HB       hE       0.955910E-01   1.00800           0
      9948 MEMB     74       PC       O31      oT      -0.509480       16.0000           0
      9949 MEMB     74       PC       P31      pA       1.339721       30.9700           0
      9950 MEMB     74       PC       O32      oT      -0.508176       16.0000           0
      9951 MEMB     74       PC       C31      cA       0.166801       12.0100           0
      9952 MEMB     74       PC       H1A      hE       0.785340E-01   1.00800           0
      9953 MEMB     74       PC       H1B      hE       0.785340E-01   1.00800           0
      9954 MEMB     74       PC       C32      cA      -0.170824       12.0100           0
      9955 MEMB     74       PC       H2A      hX       0.136415       1.00800           0
      9956 MEMB     74       PC       H2B      hX       0.136415       1.00800           0
      9957 MEMB     74       PC       N31      nA       0.245262       14.0100           0
      9958 MEMB     74       PC       C33      cA      -0.338973       12.0100           0
      9959 MEMB     74       PC       H3A      hX       0.172230       1.00800           0
      9960 MEMB     74       PC       H3B      hX       0.172230       1.00800           0
      9961 MEMB     74       PC       H3C      hX       0.172230       1.00800           0
      9962 MEMB     74       PC       C34      cA      -0.338973       12.0100           0
      9963 MEMB     74       PC       H4A      hX       0.172230       1.00800           0
      9964 MEMB     74       PC       H4B      hX       0.172230       1.00800           0
      9965 MEMB     74       PC       H4C      hX       0.172230       1.00800           0
      9966 MEMB     74       PC       C35      cA      -0.338973       12.0100           0
      9967 MEMB     74       PC       H5A      hX       0.172230       1.00800           0
      9968 MEMB     74       PC       H5B      hX       0.172230       1.00800           0
      9969 MEMB     74       PC       H5C      hX       0.172230       1.00800           0
      9970 MEMB     74       PC       O33      oP      -0.875812       16.0000           0
      9971 MEMB     74       PC       O34      oP      -0.875812       16.0000           0
      9972 MEMB     74       PC       O21      oS      -0.552948       16.0000           0
      9973 MEMB     74       PC       C21      cC       0.897613       12.0100           0
      9974 MEMB     74       PC       O22      oC      -0.673755       16.0000           0
      9975 MEMB     74       OL       C12      cD      -0.143418       12.0100           0
      9976 MEMB     74       OL       H2R      hL       0.428610E-01   1.00800           0
      9977 MEMB     74       OL       H2S      hL       0.428610E-01   1.00800           0
      9978 MEMB     74       OL       C13      cD       0.161900E-02   12.0100           0
      9979 MEMB     74       OL       H3R      hL       0.195290E-01   1.00800           0
      9980 MEMB     74       OL       H3S      hL       0.195290E-01   1.00800           0
      9981 MEMB     74       OL       C14      cD      -0.229600E-01   12.0100           0
      9982 MEMB     74       OL       H4R      hL       0.181340E-01   1.00800           0
      9983 MEMB     74       OL       H4S      hL       0.181340E-01   1.00800           0
      9984 MEMB     74       OL       C15      cD      -0.166920E-01   12.0100           0
      9985 MEMB     74       OL       H5R      hL       0.869000E-02   1.00800           0
      9986 MEMB     74       OL       H5S      hL       0.869000E-02   1.00800           0
      9987 MEMB     74       OL       C16      cD      -0.237890E-01   12.0100           0
      9988 MEMB     74       OL       H6R      hL       0.926600E-02   1.00800           0
      9989 MEMB     74       OL       H6S      hL       0.926600E-02   1.00800           0
      9990 MEMB     74       OL       C17      cD      -0.174950E-01   12.0100           0
      9991 MEMB     74       OL       H7R      hL       0.195980E-01   1.00800           0
      9992 MEMB     74       OL       H7S      hL       0.195980E-01   1.00800           0
      9993 MEMB     74       OL       C18      cD       0.317750E-01   12.0100           0
      9994 MEMB     74       OL       H8R      hL       0.326850E-01   1.00800           0
      9995 MEMB     74       OL       H8S      hL       0.326850E-01   1.00800           0
      9996 MEMB     74       OL       C19      cB      -0.244228       12.0100           0
      9997 MEMB     74       OL       H9R      hB       0.131512       1.00800           0
      9998 MEMB     74       OL       C110     cB      -0.239284       12.0100           0
      9999 MEMB     74       OL       H10R     hB       0.126878       1.00800           0
     10000 MEMB     74       OL       C111     cD       0.290590E-01   12.0100           0
     10001 MEMB     74       OL       H11R     hL       0.335310E-01   1.00800           0
     10002 MEMB     74       OL       H11S     hL       0.335310E-01   1.00800           0
     10003 MEMB     74       OL       C112     cD      -0.263530E-01   12.0100           0
     10004 MEMB     74       OL       H12R     hL       0.197170E-01   1.00800           0
     10005 MEMB     74       OL       H12S     hL       0.197170E-01   1.00800           0
     10006 MEMB     74       OL       C113     cD      -0.182570E-01   12.0100           0
     10007 MEMB     74       OL       H13R     hL       0.138000E-01   1.00800           0
     10008 MEMB     74       OL       H13S     hL       0.138000E-01   1.00800           0
     10009 MEMB     74       OL       C114     cD      -0.248490E-01   12.0100           0
     10010 MEMB     74       OL       H14R     hL       0.857200E-02   1.00800           0
     10011 MEMB     74       OL       H14S     hL       0.857200E-02   1.00800           0
     10012 MEMB     74       OL       C115     cD      -0.232470E-01   12.0100           0
     10013 MEMB     74       OL       H15R     hL       0.104030E-01   1.00800           0
     10014 MEMB     74       OL       H15S     hL       0.104030E-01   1.00800           0
     10015 MEMB     74       OL       C116     cD      -0.124880E-01   12.0100           0
     10016 MEMB     74       OL       H16R     hL       0.136590E-01   1.00800           0
     10017 MEMB     74       OL       H16S     hL       0.136590E-01   1.00800           0
     10018 MEMB     74       OL       C117     cD       0.868400E-02   12.0100           0
     10019 MEMB     74       OL       H17R     hL       0.100260E-01   1.00800           0
     10020 MEMB     74       OL       H17S     hL       0.100260E-01   1.00800           0
     10021 MEMB     74       OL       C118     cD      -0.117290       12.0100           0
     10022 MEMB     74       OL       H18R     hL       0.266270E-01   1.00800           0
     10023 MEMB     74       OL       H18S     hL       0.266270E-01   1.00800           0
     10024 MEMB     74       OL       H18T     hL       0.266270E-01   1.00800           0
     10025 MEMB     75       PA       C116     cD      -0.125447       12.0100           0
     10026 MEMB     75       PA       H16R     hL       0.290470E-01   1.00800           0
     10027 MEMB     75       PA       H16S     hL       0.290470E-01   1.00800           0
     10028 MEMB     75       PA       H16T     hL       0.290470E-01   1.00800           0
     10029 MEMB     75       PA       C115     cD       0.139750E-01   12.0100           0
     10030 MEMB     75       PA       H15R     hL       0.929200E-02   1.00800           0
     10031 MEMB     75       PA       H15S     hL       0.929200E-02   1.00800           0
     10032 MEMB     75       PA       C114     cD      -0.200860E-01   12.0100           0
     10033 MEMB     75       PA       H14R     hL       0.159290E-01   1.00800           0
     10034 MEMB     75       PA       H14S     hL       0.159290E-01   1.00800           0
     10035 MEMB     75       PA       C113     cD      -0.330960E-01   12.0100           0
     10036 MEMB     75       PA       H13R     hL       0.146210E-01   1.00800           0
     10037 MEMB     75       PA       H13S     hL       0.146210E-01   1.00800           0
     10038 MEMB     75       PA       C112     cD      -0.276330E-01   12.0100           0
     10039 MEMB     75       PA       H12R     hL       0.113680E-01   1.00800           0
     10040 MEMB     75       PA       H12S     hL       0.113680E-01   1.00800           0
     10041 MEMB     75       PA       C111     cD      -0.252060E-01   12.0100           0
     10042 MEMB     75       PA       H11R     hL       0.143340E-01   1.00800           0
     10043 MEMB     75       PA       H11S     hL       0.143340E-01   1.00800           0
     10044 MEMB     75       PA       C110     cD      -0.288310E-01   12.0100           0
     10045 MEMB     75       PA       H10R     hL       0.146910E-01   1.00800           0
     10046 MEMB     75       PA       H10S     hL       0.146910E-01   1.00800           0
     10047 MEMB     75       PA       C19      cD      -0.304720E-01   12.0100           0
     10048 MEMB     75       PA       H9R      hL       0.138970E-01   1.00800           0
     10049 MEMB     75       PA       H9S      hL       0.138970E-01   1.00800           0
     10050 MEMB     75       PA       C18      cD      -0.157930E-01   12.0100           0
     10051 MEMB     75       PA       H8R      hL       0.906700E-02   1.00800           0
     10052 MEMB     75       PA       H8S      hL       0.906700E-02   1.00800           0
     10053 MEMB     75       PA       C17      cD      -0.196300E-01   12.0100           0
     10054 MEMB     75       PA       H7R      hL       0.110410E-01   1.00800           0
     10055 MEMB     75       PA       H7S      hL       0.110410E-01   1.00800           0
     10056 MEMB     75       PA       C16      cD      -0.244270E-01   12.0100           0
     10057 MEMB     75       PA       H6R      hL       0.133340E-01   1.00800           0
     10058 MEMB     75       PA       H6S      hL       0.133340E-01   1.00800           0
     10059 MEMB     75       PA       C15      cD      -0.293870E-01   12.0100           0
     10060 MEMB     75       PA       H5R      hL       0.167630E-01   1.00800           0
     10061 MEMB     75       PA       H5S      hL       0.167630E-01   1.00800           0
     10062 MEMB     75       PA       C14      cD      -0.300990E-01   12.0100           0
     10063 MEMB     75       PA       H4R      hL       0.208770E-01   1.00800           0
     10064 MEMB     75       PA       H4S      hL       0.208770E-01   1.00800           0
     10065 MEMB     75       PA       C13      cD      -0.488200E-02   12.0100           0
     10066 MEMB     75       PA       H3R      hL       0.190070E-01   1.00800           0
     10067 MEMB     75       PA       H3S      hL       0.190070E-01   1.00800           0
     10068 MEMB     75       PA       C12      cD      -0.149259       12.0100           0
     10069 MEMB     75       PA       H2R      hL       0.473450E-01   1.00800           0
     10070 MEMB     75       PA       H2S      hL       0.473450E-01   1.00800           0
     10071 MEMB     75       PC       C11      cC       0.910403       12.0100           0
     10072 MEMB     75       PC       O12      oC      -0.671566       16.0000           0
     10073 MEMB     75       PC       O11      oS      -0.575489       16.0000           0
     10074 MEMB     75       PC       C1       cA       0.196939       12.0100           0
     10075 MEMB     75       PC       HR       hE       0.704690E-01   1.00800           0
     10076 MEMB     75       PC       HS       hE       0.704690E-01   1.00800           0
     10077 MEMB     75       PC       C2       cA       0.281242       12.0100           0
     10078 MEMB     75       PC       HX       hE       0.632530E-01   1.00800           0
     10079 MEMB     75       PC       C3       cA       0.174590E-01   12.0100           0
     10080 MEMB     75       PC       HA       hE       0.955910E-01   1.00800           0
     10081 MEMB     75       PC       HB       hE       0.955910E-01   1.00800           0
     10082 MEMB     75       PC       O31      oT      -0.509480       16.0000           0
     10083 MEMB     75       PC       P31      pA       1.339721       30.9700           0
     10084 MEMB     75       PC       O32      oT      -0.508176       16.0000           0
     10085 MEMB     75       PC       C31      cA       0.166801       12.0100           0
     10086 MEMB     75       PC       H1A      hE       0.785340E-01   1.00800           0
     10087 MEMB     75       PC       H1B      hE       0.785340E-01   1.00800           0
     10088 MEMB     75       PC       C32      cA      -0.170824       12.0100           0
     10089 MEMB     75       PC       H2A      hX       0.136415       1.00800           0
     10090 MEMB     75       PC       H2B      hX       0.136415       1.00800           0
     10091 MEMB     75       PC       N31      nA       0.245262       14.0100           0
     10092 MEMB     75       PC       C33      cA      -0.338973       12.0100           0
     10093 MEMB     75       PC       H3A      hX       0.172230       1.00800           0
     10094 MEMB     75       PC       H3B      hX       0.172230       1.00800           0
     10095 MEMB     75       PC       H3C      hX       0.172230       1.00800           0
     10096 MEMB     75       PC       C34      cA      -0.338973       12.0100           0
     10097 MEMB     75       PC       H4A      hX       0.172230       1.00800           0
     10098 MEMB     75       PC       H4B      hX       0.172230       1.00800           0
     10099 MEMB     75       PC       H4C      hX       0.172230       1.00800           0
     10100 MEMB     75       PC       C35      cA      -0.338973       12.0100           0
     10101 MEMB     75       PC       H5A      hX       0.172230       1.00800           0
     10102 MEMB     75       PC       H5B      hX       0.172230       1.00800           0
     10103 MEMB     75       PC       H5C      hX       0.172230       1.00800           0
     10104 MEMB     75       PC       O33      oP      -0.875812       16.0000           0
     10105 MEMB     75       PC       O34      oP      -0.875812       16.0000           0
     10106 MEMB     75       PC       O21      oS      -0.552948       16.0000           0
     10107 MEMB     75       PC       C21      cC       0.897613       12.0100           0
     10108 MEMB     75       PC       O22      oC      -0.673755       16.0000           0
     10109 MEMB     75       OL       C12      cD      -0.143418       12.0100           0
     10110 MEMB     75       OL       H2R      hL       0.428610E-01   1.00800           0
     10111 MEMB     75       OL       H2S      hL       0.428610E-01   1.00800           0
     10112 MEMB     75       OL       C13      cD       0.161900E-02   12.0100           0
     10113 MEMB     75       OL       H3R      hL       0.195290E-01   1.00800           0
     10114 MEMB     75       OL       H3S      hL       0.195290E-01   1.00800           0
     10115 MEMB     75       OL       C14      cD      -0.229600E-01   12.0100           0
     10116 MEMB     75       OL       H4R      hL       0.181340E-01   1.00800           0
     10117 MEMB     75       OL       H4S      hL       0.181340E-01   1.00800           0
     10118 MEMB     75       OL       C15      cD      -0.166920E-01   12.0100           0
     10119 MEMB     75       OL       H5R      hL       0.869000E-02   1.00800           0
     10120 MEMB     75       OL       H5S      hL       0.869000E-02   1.00800           0
     10121 MEMB     75       OL       C16      cD      -0.237890E-01   12.0100           0
     10122 MEMB     75       OL       H6R      hL       0.926600E-02   1.00800           0
     10123 MEMB     75       OL       H6S      hL       0.926600E-02   1.00800           0
     10124 MEMB     75       OL       C17      cD      -0.174950E-01   12.0100           0
     10125 MEMB     75       OL       H7R      hL       0.195980E-01   1.00800           0
     10126 MEMB     75       OL       H7S      hL       0.195980E-01   1.00800           0
     10127 MEMB     75       OL       C18      cD       0.317750E-01   12.0100           0
     10128 MEMB     75       OL       H8R      hL       0.326850E-01   1.00800           0
     10129 MEMB     75       OL       H8S      hL       0.326850E-01   1.00800           0
     10130 MEMB     75       OL       C19      cB      -0.244228       12.0100           0
     10131 MEMB     75       OL       H9R      hB       0.131512       1.00800           0
     10132 MEMB     75       OL       C110     cB      -0.239284       12.0100           0
     10133 MEMB     75       OL       H10R     hB       0.126878       1.00800           0
     10134 MEMB     75       OL       C111     cD       0.290590E-01   12.0100           0
     10135 MEMB     75       OL       H11R     hL       0.335310E-01   1.00800           0
     10136 MEMB     75       OL       H11S     hL       0.335310E-01   1.00800           0
     10137 MEMB     75       OL       C112     cD      -0.263530E-01   12.0100           0
     10138 MEMB     75       OL       H12R     hL       0.197170E-01   1.00800           0
     10139 MEMB     75       OL       H12S     hL       0.197170E-01   1.00800           0
     10140 MEMB     75       OL       C113     cD      -0.182570E-01   12.0100           0
     10141 MEMB     75       OL       H13R     hL       0.138000E-01   1.00800           0
     10142 MEMB     75       OL       H13S     hL       0.138000E-01   1.00800           0
     10143 MEMB     75       OL       C114     cD      -0.248490E-01   12.0100           0
     10144 MEMB     75       OL       H14R     hL       0.857200E-02   1.00800           0
     10145 MEMB     75       OL       H14S     hL       0.857200E-02   1.00800           0
     10146 MEMB     75       OL       C115     cD      -0.232470E-01   12.0100           0
     10147 MEMB     75       OL       H15R     hL       0.104030E-01   1.00800           0
     10148 MEMB     75       OL       H15S     hL       0.104030E-01   1.00800           0
     10149 MEMB     75       OL       C116     cD      -0.124880E-01   12.0100           0
     10150 MEMB     75       OL       H16R     hL       0.136590E-01   1.00800           0
     10151 MEMB     75       OL       H16S     hL       0.136590E-01   1.00800           0
     10152 MEMB     75       OL       C117     cD       0.868400E-02   12.0100           0
     10153 MEMB     75       OL       H17R     hL       0.100260E-01   1.00800           0
     10154 MEMB     75       OL       H17S     hL       0.100260E-01   1.00800           0
     10155 MEMB     75       OL       C118     cD      -0.117290       12.0100           0
     10156 MEMB     75       OL       H18R     hL       0.266270E-01   1.00800           0
     10157 MEMB     75       OL       H18S     hL       0.266270E-01   1.00800           0
     10158 MEMB     75       OL       H18T     hL       0.266270E-01   1.00800           0
     10159 MEMB     76       PA       C116     cD      -0.125447       12.0100           0
     10160 MEMB     76       PA       H16R     hL       0.290470E-01   1.00800           0
     10161 MEMB     76       PA       H16S     hL       0.290470E-01   1.00800           0
     10162 MEMB     76       PA       H16T     hL       0.290470E-01   1.00800           0
     10163 MEMB     76       PA       C115     cD       0.139750E-01   12.0100           0
     10164 MEMB     76       PA       H15R     hL       0.929200E-02   1.00800           0
     10165 MEMB     76       PA       H15S     hL       0.929200E-02   1.00800           0
     10166 MEMB     76       PA       C114     cD      -0.200860E-01   12.0100           0
     10167 MEMB     76       PA       H14R     hL       0.159290E-01   1.00800           0
     10168 MEMB     76       PA       H14S     hL       0.159290E-01   1.00800           0
     10169 MEMB     76       PA       C113     cD      -0.330960E-01   12.0100           0
     10170 MEMB     76       PA       H13R     hL       0.146210E-01   1.00800           0
     10171 MEMB     76       PA       H13S     hL       0.146210E-01   1.00800           0
     10172 MEMB     76       PA       C112     cD      -0.276330E-01   12.0100           0
     10173 MEMB     76       PA       H12R     hL       0.113680E-01   1.00800           0
     10174 MEMB     76       PA       H12S     hL       0.113680E-01   1.00800           0
     10175 MEMB     76       PA       C111     cD      -0.252060E-01   12.0100           0
     10176 MEMB     76       PA       H11R     hL       0.143340E-01   1.00800           0
     10177 MEMB     76       PA       H11S     hL       0.143340E-01   1.00800           0
     10178 MEMB     76       PA       C110     cD      -0.288310E-01   12.0100           0
     10179 MEMB     76       PA       H10R     hL       0.146910E-01   1.00800           0
     10180 MEMB     76       PA       H10S     hL       0.146910E-01   1.00800           0
     10181 MEMB     76       PA       C19      cD      -0.304720E-01   12.0100           0
     10182 MEMB     76       PA       H9R      hL       0.138970E-01   1.00800           0
     10183 MEMB     76       PA       H9S      hL       0.138970E-01   1.00800           0
     10184 MEMB     76       PA       C18      cD      -0.157930E-01   12.0100           0
     10185 MEMB     76       PA       H8R      hL       0.906700E-02   1.00800           0
     10186 MEMB     76       PA       H8S      hL       0.906700E-02   1.00800           0
     10187 MEMB     76       PA       C17      cD      -0.196300E-01   12.0100           0
     10188 MEMB     76       PA       H7R      hL       0.110410E-01   1.00800           0
     10189 MEMB     76       PA       H7S      hL       0.110410E-01   1.00800           0
     10190 MEMB     76       PA       C16      cD      -0.244270E-01   12.0100           0
     10191 MEMB     76       PA       H6R      hL       0.133340E-01   1.00800           0
     10192 MEMB     76       PA       H6S      hL       0.133340E-01   1.00800           0
     10193 MEMB     76       PA       C15      cD      -0.293870E-01   12.0100           0
     10194 MEMB     76       PA       H5R      hL       0.167630E-01   1.00800           0
     10195 MEMB     76       PA       H5S      hL       0.167630E-01   1.00800           0
     10196 MEMB     76       PA       C14      cD      -0.300990E-01   12.0100           0
     10197 MEMB     76       PA       H4R      hL       0.208770E-01   1.00800           0
     10198 MEMB     76       PA       H4S      hL       0.208770E-01   1.00800           0
     10199 MEMB     76       PA       C13      cD      -0.488200E-02   12.0100           0
     10200 MEMB     76       PA       H3R      hL       0.190070E-01   1.00800           0
     10201 MEMB     76       PA       H3S      hL       0.190070E-01   1.00800           0
     10202 MEMB     76       PA       C12      cD      -0.149259       12.0100           0
     10203 MEMB     76       PA       H2R      hL       0.473450E-01   1.00800           0
     10204 MEMB     76       PA       H2S      hL       0.473450E-01   1.00800           0
     10205 MEMB     76       PC       C11      cC       0.910403       12.0100           0
     10206 MEMB     76       PC       O12      oC      -0.671566       16.0000           0
     10207 MEMB     76       PC       O11      oS      -0.575489       16.0000           0
     10208 MEMB     76       PC       C1       cA       0.196939       12.0100           0
     10209 MEMB     76       PC       HR       hE       0.704690E-01   1.00800           0
     10210 MEMB     76       PC       HS       hE       0.704690E-01   1.00800           0
     10211 MEMB     76       PC       C2       cA       0.281242       12.0100           0
     10212 MEMB     76       PC       HX       hE       0.632530E-01   1.00800           0
     10213 MEMB     76       PC       C3       cA       0.174590E-01   12.0100           0
     10214 MEMB     76       PC       HA       hE       0.955910E-01   1.00800           0
     10215 MEMB     76       PC       HB       hE       0.955910E-01   1.00800           0
     10216 MEMB     76       PC       O31      oT      -0.509480       16.0000           0
     10217 MEMB     76       PC       P31      pA       1.339721       30.9700           0
     10218 MEMB     76       PC       O32      oT      -0.508176       16.0000           0
     10219 MEMB     76       PC       C31      cA       0.166801       12.0100           0
     10220 MEMB     76       PC       H1A      hE       0.785340E-01   1.00800           0
     10221 MEMB     76       PC       H1B      hE       0.785340E-01   1.00800           0
     10222 MEMB     76       PC       C32      cA      -0.170824       12.0100           0
     10223 MEMB     76       PC       H2A      hX       0.136415       1.00800           0
     10224 MEMB     76       PC       H2B      hX       0.136415       1.00800           0
     10225 MEMB     76       PC       N31      nA       0.245262       14.0100           0
     10226 MEMB     76       PC       C33      cA      -0.338973       12.0100           0
     10227 MEMB     76       PC       H3A      hX       0.172230       1.00800           0
     10228 MEMB     76       PC       H3B      hX       0.172230       1.00800           0
     10229 MEMB     76       PC       H3C      hX       0.172230       1.00800           0
     10230 MEMB     76       PC       C34      cA      -0.338973       12.0100           0
     10231 MEMB     76       PC       H4A      hX       0.172230       1.00800           0
     10232 MEMB     76       PC       H4B      hX       0.172230       1.00800           0
     10233 MEMB     76       PC       H4C      hX       0.172230       1.00800           0
     10234 MEMB     76       PC       C35      cA      -0.338973       12.0100           0
     10235 MEMB     76       PC       H5A      hX       0.172230       1.00800           0
     10236 MEMB     76       PC       H5B      hX       0.172230       1.00800           0
     10237 MEMB     76       PC       H5C      hX       0.172230       1.00800           0
     10238 MEMB     76       PC       O33      oP      -0.875812       16.0000           0
     10239 MEMB     76       PC       O34      oP      -0.875812       16.0000           0
     10240 MEMB     76       PC       O21      oS      -0.552948       16.0000           0
     10241 MEMB     76       PC       C21      cC       0.897613       12.0100           0
     10242 MEMB     76       PC       O22      oC      -0.673755       16.0000           0
     10243 MEMB     76       OL       C12      cD      -0.143418       12.0100           0
     10244 MEMB     76       OL       H2R      hL       0.428610E-01   1.00800           0
     10245 MEMB     76       OL       H2S      hL       0.428610E-01   1.00800           0
     10246 MEMB     76       OL       C13      cD       0.161900E-02   12.0100           0
     10247 MEMB     76       OL       H3R      hL       0.195290E-01   1.00800           0
     10248 MEMB     76       OL       H3S      hL       0.195290E-01   1.00800           0
     10249 MEMB     76       OL       C14      cD      -0.229600E-01   12.0100           0
     10250 MEMB     76       OL       H4R      hL       0.181340E-01   1.00800           0
     10251 MEMB     76       OL       H4S      hL       0.181340E-01   1.00800           0
     10252 MEMB     76       OL       C15      cD      -0.166920E-01   12.0100           0
     10253 MEMB     76       OL       H5R      hL       0.869000E-02   1.00800           0
     10254 MEMB     76       OL       H5S      hL       0.869000E-02   1.00800           0
     10255 MEMB     76       OL       C16      cD      -0.237890E-01   12.0100           0
     10256 MEMB     76       OL       H6R      hL       0.926600E-02   1.00800           0
     10257 MEMB     76       OL       H6S      hL       0.926600E-02   1.00800           0
     10258 MEMB     76       OL       C17      cD      -0.174950E-01   12.0100           0
     10259 MEMB     76       OL       H7R      hL       0.195980E-01   1.00800           0
     10260 MEMB     76       OL       H7S      hL       0.195980E-01   1.00800           0
     10261 MEMB     76       OL       C18      cD       0.317750E-01   12.0100           0
     10262 MEMB     76       OL       H8R      hL       0.326850E-01   1.00800           0
     10263 MEMB     76       OL       H8S      hL       0.326850E-01   1.00800           0
     10264 MEMB     76       OL       C19      cB      -0.244228       12.0100           0
     10265 MEMB     76       OL       H9R      hB       0.131512       1.00800           0
     10266 MEMB     76       OL       C110     cB      -0.239284       12.0100           0
     10267 MEMB     76       OL       H10R     hB       0.126878       1.00800           0
     10268 MEMB     76       OL       C111     cD       0.290590E-01   12.0100           0
     10269 MEMB     76       OL       H11R     hL       0.335310E-01   1.00800           0
     10270 MEMB     76       OL       H11S     hL       0.335310E-01   1.00800           0
     10271 MEMB     76       OL       C112     cD      -0.263530E-01   12.0100           0
     10272 MEMB     76       OL       H12R     hL       0.197170E-01   1.00800           0
     10273 MEMB     76       OL       H12S     hL       0.197170E-01   1.00800           0
     10274 MEMB     76       OL       C113     cD      -0.182570E-01   12.0100           0
     10275 MEMB     76       OL       H13R     hL       0.138000E-01   1.00800           0
     10276 MEMB     76       OL       H13S     hL       0.138000E-01   1.00800           0
     10277 MEMB     76       OL       C114     cD      -0.248490E-01   12.0100           0
     10278 MEMB     76       OL       H14R     hL       0.857200E-02   1.00800           0
     10279 MEMB     76       OL       H14S     hL       0.857200E-02   1.00800           0
     10280 MEMB     76       OL       C115     cD      -0.232470E-01   12.0100           0
     10281 MEMB     76       OL       H15R     hL       0.104030E-01   1.00800           0
     10282 MEMB     76       OL       H15S     hL       0.104030E-01   1.00800           0
     10283 MEMB     76       OL       C116     cD      -0.124880E-01   12.0100           0
     10284 MEMB     76       OL       H16R     hL       0.136590E-01   1.00800           0
     10285 MEMB     76       OL       H16S     hL       0.136590E-01   1.00800           0
     10286 MEMB     76       OL       C117     cD       0.868400E-02   12.0100           0
     10287 MEMB     76       OL       H17R     hL       0.100260E-01   1.00800           0
     10288 MEMB     76       OL       H17S     hL       0.100260E-01   1.00800           0
     10289 MEMB     76       OL       C118     cD      -0.117290       12.0100           0
     10290 MEMB     76       OL       H18R     hL       0.266270E-01   1.00800           0
     10291 MEMB     76       OL       H18S     hL       0.266270E-01   1.00800           0
     10292 MEMB     76       OL       H18T     hL       0.266270E-01   1.00800           0
     10293 MEMB     77       PA       C116     cD      -0.125447       12.0100           0
     10294 MEMB     77       PA       H16R     hL       0.290470E-01   1.00800           0
     10295 MEMB     77       PA       H16S     hL       0.290470E-01   1.00800           0
     10296 MEMB     77       PA       H16T     hL       0.290470E-01   1.00800           0
     10297 MEMB     77       PA       C115     cD       0.139750E-01   12.0100           0
     10298 MEMB     77       PA       H15R     hL       0.929200E-02   1.00800           0
     10299 MEMB     77       PA       H15S     hL       0.929200E-02   1.00800           0
     10300 MEMB     77       PA       C114     cD      -0.200860E-01   12.0100           0
     10301 MEMB     77       PA       H14R     hL       0.159290E-01   1.00800           0
     10302 MEMB     77       PA       H14S     hL       0.159290E-01   1.00800           0
     10303 MEMB     77       PA       C113     cD      -0.330960E-01   12.0100           0
     10304 MEMB     77       PA       H13R     hL       0.146210E-01   1.00800           0
     10305 MEMB     77       PA       H13S     hL       0.146210E-01   1.00800           0
     10306 MEMB     77       PA       C112     cD      -0.276330E-01   12.0100           0
     10307 MEMB     77       PA       H12R     hL       0.113680E-01   1.00800           0
     10308 MEMB     77       PA       H12S     hL       0.113680E-01   1.00800           0
     10309 MEMB     77       PA       C111     cD      -0.252060E-01   12.0100           0
     10310 MEMB     77       PA       H11R     hL       0.143340E-01   1.00800           0
     10311 MEMB     77       PA       H11S     hL       0.143340E-01   1.00800           0
     10312 MEMB     77       PA       C110     cD      -0.288310E-01   12.0100           0
     10313 MEMB     77       PA       H10R     hL       0.146910E-01   1.00800           0
     10314 MEMB     77       PA       H10S     hL       0.146910E-01   1.00800           0
     10315 MEMB     77       PA       C19      cD      -0.304720E-01   12.0100           0
     10316 MEMB     77       PA       H9R      hL       0.138970E-01   1.00800           0
     10317 MEMB     77       PA       H9S      hL       0.138970E-01   1.00800           0
     10318 MEMB     77       PA       C18      cD      -0.157930E-01   12.0100           0
     10319 MEMB     77       PA       H8R      hL       0.906700E-02   1.00800           0
     10320 MEMB     77       PA       H8S      hL       0.906700E-02   1.00800           0
     10321 MEMB     77       PA       C17      cD      -0.196300E-01   12.0100           0
     10322 MEMB     77       PA       H7R      hL       0.110410E-01   1.00800           0
     10323 MEMB     77       PA       H7S      hL       0.110410E-01   1.00800           0
     10324 MEMB     77       PA       C16      cD      -0.244270E-01   12.0100           0
     10325 MEMB     77       PA       H6R      hL       0.133340E-01   1.00800           0
     10326 MEMB     77       PA       H6S      hL       0.133340E-01   1.00800           0
     10327 MEMB     77       PA       C15      cD      -0.293870E-01   12.0100           0
     10328 MEMB     77       PA       H5R      hL       0.167630E-01   1.00800           0
     10329 MEMB     77       PA       H5S      hL       0.167630E-01   1.00800           0
     10330 MEMB     77       PA       C14      cD      -0.300990E-01   12.0100           0
     10331 MEMB     77       PA       H4R      hL       0.208770E-01   1.00800           0
     10332 MEMB     77       PA       H4S      hL       0.208770E-01   1.00800           0
     10333 MEMB     77       PA       C13      cD      -0.488200E-02   12.0100           0
     10334 MEMB     77       PA       H3R      hL       0.190070E-01   1.00800           0
     10335 MEMB     77       PA       H3S      hL       0.190070E-01   1.00800           0
     10336 MEMB     77       PA       C12      cD      -0.149259       12.0100           0
     10337 MEMB     77       PA       H2R      hL       0.473450E-01   1.00800           0
     10338 MEMB     77       PA       H2S      hL       0.473450E-01   1.00800           0
     10339 MEMB     77       PC       C11      cC       0.910403       12.0100           0
     10340 MEMB     77       PC       O12      oC      -0.671566       16.0000           0
     10341 MEMB     77       PC       O11      oS      -0.575489       16.0000           0
     10342 MEMB     77       PC       C1       cA       0.196939       12.0100           0
     10343 MEMB     77       PC       HR       hE       0.704690E-01   1.00800           0
     10344 MEMB     77       PC       HS       hE       0.704690E-01   1.00800           0
     10345 MEMB     77       PC       C2       cA       0.281242       12.0100           0
     10346 MEMB     77       PC       HX       hE       0.632530E-01   1.00800           0
     10347 MEMB     77       PC       C3       cA       0.174590E-01   12.0100           0
     10348 MEMB     77       PC       HA       hE       0.955910E-01   1.00800           0
     10349 MEMB     77       PC       HB       hE       0.955910E-01   1.00800           0
     10350 MEMB     77       PC       O31      oT      -0.509480       16.0000           0
     10351 MEMB     77       PC       P31      pA       1.339721       30.9700           0
     10352 MEMB     77       PC       O32      oT      -0.508176       16.0000           0
     10353 MEMB     77       PC       C31      cA       0.166801       12.0100           0
     10354 MEMB     77       PC       H1A      hE       0.785340E-01   1.00800           0
     10355 MEMB     77       PC       H1B      hE       0.785340E-01   1.00800           0
     10356 MEMB     77       PC       C32      cA      -0.170824       12.0100           0
     10357 MEMB     77       PC       H2A      hX       0.136415       1.00800           0
     10358 MEMB     77       PC       H2B      hX       0.136415       1.00800           0
     10359 MEMB     77       PC       N31      nA       0.245262       14.0100           0
     10360 MEMB     77       PC       C33      cA      -0.338973       12.0100           0
     10361 MEMB     77       PC       H3A      hX       0.172230       1.00800           0
     10362 MEMB     77       PC       H3B      hX       0.172230       1.00800           0
     10363 MEMB     77       PC       H3C      hX       0.172230       1.00800           0
     10364 MEMB     77       PC       C34      cA      -0.338973       12.0100           0
     10365 MEMB     77       PC       H4A      hX       0.172230       1.00800           0
     10366 MEMB     77       PC       H4B      hX       0.172230       1.00800           0
     10367 MEMB     77       PC       H4C      hX       0.172230       1.00800           0
     10368 MEMB     77       PC       C35      cA      -0.338973       12.0100           0
     10369 MEMB     77       PC       H5A      hX       0.172230       1.00800           0
     10370 MEMB     77       PC       H5B      hX       0.172230       1.00800           0
     10371 MEMB     77       PC       H5C      hX       0.172230       1.00800           0
     10372 MEMB     77       PC       O33      oP      -0.875812       16.0000           0
     10373 MEMB     77       PC       O34      oP      -0.875812       16.0000           0
     10374 MEMB     77       PC       O21      oS      -0.552948       16.0000           0
     10375 MEMB     77       PC       C21      cC       0.897613       12.0100           0
     10376 MEMB     77       PC       O22      oC      -0.673755       16.0000           0
     10377 MEMB     77       OL       C12      cD      -0.143418       12.0100           0
     10378 MEMB     77       OL       H2R      hL       0.428610E-01   1.00800           0
     10379 MEMB     77       OL       H2S      hL       0.428610E-01   1.00800           0
     10380 MEMB     77       OL       C13      cD       0.161900E-02   12.0100           0
     10381 MEMB     77       OL       H3R      hL       0.195290E-01   1.00800           0
     10382 MEMB     77       OL       H3S      hL       0.195290E-01   1.00800           0
     10383 MEMB     77       OL       C14      cD      -0.229600E-01   12.0100           0
     10384 MEMB     77       OL       H4R      hL       0.181340E-01   1.00800           0
     10385 MEMB     77       OL       H4S      hL       0.181340E-01   1.00800           0
     10386 MEMB     77       OL       C15      cD      -0.166920E-01   12.0100           0
     10387 MEMB     77       OL       H5R      hL       0.869000E-02   1.00800           0
     10388 MEMB     77       OL       H5S      hL       0.869000E-02   1.00800           0
     10389 MEMB     77       OL       C16      cD      -0.237890E-01   12.0100           0
     10390 MEMB     77       OL       H6R      hL       0.926600E-02   1.00800           0
     10391 MEMB     77       OL       H6S      hL       0.926600E-02   1.00800           0
     10392 MEMB     77       OL       C17      cD      -0.174950E-01   12.0100           0
     10393 MEMB     77       OL       H7R      hL       0.195980E-01   1.00800           0
     10394 MEMB     77       OL       H7S      hL       0.195980E-01   1.00800           0
     10395 MEMB     77       OL       C18      cD       0.317750E-01   12.0100           0
     10396 MEMB     77       OL       H8R      hL       0.326850E-01   1.00800           0
     10397 MEMB     77       OL       H8S      hL       0.326850E-01   1.00800           0
     10398 MEMB     77       OL       C19      cB      -0.244228       12.0100           0
     10399 MEMB     77       OL       H9R      hB       0.131512       1.00800           0
     10400 MEMB     77       OL       C110     cB      -0.239284       12.0100           0
     10401 MEMB     77       OL       H10R     hB       0.126878       1.00800           0
     10402 MEMB     77       OL       C111     cD       0.290590E-01   12.0100           0
     10403 MEMB     77       OL       H11R     hL       0.335310E-01   1.00800           0
     10404 MEMB     77       OL       H11S     hL       0.335310E-01   1.00800           0
     10405 MEMB     77       OL       C112     cD      -0.263530E-01   12.0100           0
     10406 MEMB     77       OL       H12R     hL       0.197170E-01   1.00800           0
     10407 MEMB     77       OL       H12S     hL       0.197170E-01   1.00800           0
     10408 MEMB     77       OL       C113     cD      -0.182570E-01   12.0100           0
     10409 MEMB     77       OL       H13R     hL       0.138000E-01   1.00800           0
     10410 MEMB     77       OL       H13S     hL       0.138000E-01   1.00800           0
     10411 MEMB     77       OL       C114     cD      -0.248490E-01   12.0100           0
     10412 MEMB     77       OL       H14R     hL       0.857200E-02   1.00800           0
     10413 MEMB     77       OL       H14S     hL       0.857200E-02   1.00800           0
     10414 MEMB     77       OL       C115     cD      -0.232470E-01   12.0100           0
     10415 MEMB     77       OL       H15R     hL       0.104030E-01   1.00800           0
     10416 MEMB     77       OL       H15S     hL       0.104030E-01   1.00800           0
     10417 MEMB     77       OL       C116     cD      -0.124880E-01   12.0100           0
     10418 MEMB     77       OL       H16R     hL       0.136590E-01   1.00800           0
     10419 MEMB     77       OL       H16S     hL       0.136590E-01   1.00800           0
     10420 MEMB     77       OL       C117     cD       0.868400E-02   12.0100           0
     10421 MEMB     77       OL       H17R     hL       0.100260E-01   1.00800           0
     10422 MEMB     77       OL       H17S     hL       0.100260E-01   1.00800           0
     10423 MEMB     77       OL       C118     cD      -0.117290       12.0100           0
     10424 MEMB     77       OL       H18R     hL       0.266270E-01   1.00800           0
     10425 MEMB     77       OL       H18S     hL       0.266270E-01   1.00800           0
     10426 MEMB     77       OL       H18T     hL       0.266270E-01   1.00800           0
     10427 MEMB     78       PA       C116     cD      -0.125447       12.0100           0
     10428 MEMB     78       PA       H16R     hL       0.290470E-01   1.00800           0
     10429 MEMB     78       PA       H16S     hL       0.290470E-01   1.00800           0
     10430 MEMB     78       PA       H16T     hL       0.290470E-01   1.00800           0
     10431 MEMB     78       PA       C115     cD       0.139750E-01   12.0100           0
     10432 MEMB     78       PA       H15R     hL       0.929200E-02   1.00800           0
     10433 MEMB     78       PA       H15S     hL       0.929200E-02   1.00800           0
     10434 MEMB     78       PA       C114     cD      -0.200860E-01   12.0100           0
     10435 MEMB     78       PA       H14R     hL       0.159290E-01   1.00800           0
     10436 MEMB     78       PA       H14S     hL       0.159290E-01   1.00800           0
     10437 MEMB     78       PA       C113     cD      -0.330960E-01   12.0100           0
     10438 MEMB     78       PA       H13R     hL       0.146210E-01   1.00800           0
     10439 MEMB     78       PA       H13S     hL       0.146210E-01   1.00800           0
     10440 MEMB     78       PA       C112     cD      -0.276330E-01   12.0100           0
     10441 MEMB     78       PA       H12R     hL       0.113680E-01   1.00800           0
     10442 MEMB     78       PA       H12S     hL       0.113680E-01   1.00800           0
     10443 MEMB     78       PA       C111     cD      -0.252060E-01   12.0100           0
     10444 MEMB     78       PA       H11R     hL       0.143340E-01   1.00800           0
     10445 MEMB     78       PA       H11S     hL       0.143340E-01   1.00800           0
     10446 MEMB     78       PA       C110     cD      -0.288310E-01   12.0100           0
     10447 MEMB     78       PA       H10R     hL       0.146910E-01   1.00800           0
     10448 MEMB     78       PA       H10S     hL       0.146910E-01   1.00800           0
     10449 MEMB     78       PA       C19      cD      -0.304720E-01   12.0100           0
     10450 MEMB     78       PA       H9R      hL       0.138970E-01   1.00800           0
     10451 MEMB     78       PA       H9S      hL       0.138970E-01   1.00800           0
     10452 MEMB     78       PA       C18      cD      -0.157930E-01   12.0100           0
     10453 MEMB     78       PA       H8R      hL       0.906700E-02   1.00800           0
     10454 MEMB     78       PA       H8S      hL       0.906700E-02   1.00800           0
     10455 MEMB     78       PA       C17      cD      -0.196300E-01   12.0100           0
     10456 MEMB     78       PA       H7R      hL       0.110410E-01   1.00800           0
     10457 MEMB     78       PA       H7S      hL       0.110410E-01   1.00800           0
     10458 MEMB     78       PA       C16      cD      -0.244270E-01   12.0100           0
     10459 MEMB     78       PA       H6R      hL       0.133340E-01   1.00800           0
     10460 MEMB     78       PA       H6S      hL       0.133340E-01   1.00800           0
     10461 MEMB     78       PA       C15      cD      -0.293870E-01   12.0100           0
     10462 MEMB     78       PA       H5R      hL       0.167630E-01   1.00800           0
     10463 MEMB     78       PA       H5S      hL       0.167630E-01   1.00800           0
     10464 MEMB     78       PA       C14      cD      -0.300990E-01   12.0100           0
     10465 MEMB     78       PA       H4R      hL       0.208770E-01   1.00800           0
     10466 MEMB     78       PA       H4S      hL       0.208770E-01   1.00800           0
     10467 MEMB     78       PA       C13      cD      -0.488200E-02   12.0100           0
     10468 MEMB     78       PA       H3R      hL       0.190070E-01   1.00800           0
     10469 MEMB     78       PA       H3S      hL       0.190070E-01   1.00800           0
     10470 MEMB     78       PA       C12      cD      -0.149259       12.0100           0
     10471 MEMB     78       PA       H2R      hL       0.473450E-01   1.00800           0
     10472 MEMB     78       PA       H2S      hL       0.473450E-01   1.00800           0
     10473 MEMB     78       PC       C11      cC       0.910403       12.0100           0
     10474 MEMB     78       PC       O12      oC      -0.671566       16.0000           0
     10475 MEMB     78       PC       O11      oS      -0.575489       16.0000           0
     10476 MEMB     78       PC       C1       cA       0.196939       12.0100           0
     10477 MEMB     78       PC       HR       hE       0.704690E-01   1.00800           0
     10478 MEMB     78       PC       HS       hE       0.704690E-01   1.00800           0
     10479 MEMB     78       PC       C2       cA       0.281242       12.0100           0
     10480 MEMB     78       PC       HX       hE       0.632530E-01   1.00800           0
     10481 MEMB     78       PC       C3       cA       0.174590E-01   12.0100           0
     10482 MEMB     78       PC       HA       hE       0.955910E-01   1.00800           0
     10483 MEMB     78       PC       HB       hE       0.955910E-01   1.00800           0
     10484 MEMB     78       PC       O31      oT      -0.509480       16.0000           0
     10485 MEMB     78       PC       P31      pA       1.339721       30.9700           0
     10486 MEMB     78       PC       O32      oT      -0.508176       16.0000           0
     10487 MEMB     78       PC       C31      cA       0.166801       12.0100           0
     10488 MEMB     78       PC       H1A      hE       0.785340E-01   1.00800           0
     10489 MEMB     78       PC       H1B      hE       0.785340E-01   1.00800           0
     10490 MEMB     78       PC       C32      cA      -0.170824       12.0100           0
     10491 MEMB     78       PC       H2A      hX       0.136415       1.00800           0
     10492 MEMB     78       PC       H2B      hX       0.136415       1.00800           0
     10493 MEMB     78       PC       N31      nA       0.245262       14.0100           0
     10494 MEMB     78       PC       C33      cA      -0.338973       12.0100           0
     10495 MEMB     78       PC       H3A      hX       0.172230       1.00800           0
     10496 MEMB     78       PC       H3B      hX       0.172230       1.00800           0
     10497 MEMB     78       PC       H3C      hX       0.172230       1.00800           0
     10498 MEMB     78       PC       C34      cA      -0.338973       12.0100           0
     10499 MEMB     78       PC       H4A      hX       0.172230       1.00800           0
     10500 MEMB     78       PC       H4B      hX       0.172230       1.00800           0
     10501 MEMB     78       PC       H4C      hX       0.172230       1.00800           0
     10502 MEMB     78       PC       C35      cA      -0.338973       12.0100           0
     10503 MEMB     78       PC       H5A      hX       0.172230       1.00800           0
     10504 MEMB     78       PC       H5B      hX       0.172230       1.00800           0
     10505 MEMB     78       PC       H5C      hX       0.172230       1.00800           0
     10506 MEMB     78       PC       O33      oP      -0.875812       16.0000           0
     10507 MEMB     78       PC       O34      oP      -0.875812       16.0000           0
     10508 MEMB     78       PC       O21      oS      -0.552948       16.0000           0
     10509 MEMB     78       PC       C21      cC       0.897613       12.0100           0
     10510 MEMB     78       PC       O22      oC      -0.673755       16.0000           0
     10511 MEMB     78       OL       C12      cD      -0.143418       12.0100           0
     10512 MEMB     78       OL       H2R      hL       0.428610E-01   1.00800           0
     10513 MEMB     78       OL       H2S      hL       0.428610E-01   1.00800           0
     10514 MEMB     78       OL       C13      cD       0.161900E-02   12.0100           0
     10515 MEMB     78       OL       H3R      hL       0.195290E-01   1.00800           0
     10516 MEMB     78       OL       H3S      hL       0.195290E-01   1.00800           0
     10517 MEMB     78       OL       C14      cD      -0.229600E-01   12.0100           0
     10518 MEMB     78       OL       H4R      hL       0.181340E-01   1.00800           0
     10519 MEMB     78       OL       H4S      hL       0.181340E-01   1.00800           0
     10520 MEMB     78       OL       C15      cD      -0.166920E-01   12.0100           0
     10521 MEMB     78       OL       H5R      hL       0.869000E-02   1.00800           0
     10522 MEMB     78       OL       H5S      hL       0.869000E-02   1.00800           0
     10523 MEMB     78       OL       C16      cD      -0.237890E-01   12.0100           0
     10524 MEMB     78       OL       H6R      hL       0.926600E-02   1.00800           0
     10525 MEMB     78       OL       H6S      hL       0.926600E-02   1.00800           0
     10526 MEMB     78       OL       C17      cD      -0.174950E-01   12.0100           0
     10527 MEMB     78       OL       H7R      hL       0.195980E-01   1.00800           0
     10528 MEMB     78       OL       H7S      hL       0.195980E-01   1.00800           0
     10529 MEMB     78       OL       C18      cD       0.317750E-01   12.0100           0
     10530 MEMB     78       OL       H8R      hL       0.326850E-01   1.00800           0
     10531 MEMB     78       OL       H8S      hL       0.326850E-01   1.00800           0
     10532 MEMB     78       OL       C19      cB      -0.244228       12.0100           0
     10533 MEMB     78       OL       H9R      hB       0.131512       1.00800           0
     10534 MEMB     78       OL       C110     cB      -0.239284       12.0100           0
     10535 MEMB     78       OL       H10R     hB       0.126878       1.00800           0
     10536 MEMB     78       OL       C111     cD       0.290590E-01   12.0100           0
     10537 MEMB     78       OL       H11R     hL       0.335310E-01   1.00800           0
     10538 MEMB     78       OL       H11S     hL       0.335310E-01   1.00800           0
     10539 MEMB     78       OL       C112     cD      -0.263530E-01   12.0100           0
     10540 MEMB     78       OL       H12R     hL       0.197170E-01   1.00800           0
     10541 MEMB     78       OL       H12S     hL       0.197170E-01   1.00800           0
     10542 MEMB     78       OL       C113     cD      -0.182570E-01   12.0100           0
     10543 MEMB     78       OL       H13R     hL       0.138000E-01   1.00800           0
     10544 MEMB     78       OL       H13S     hL       0.138000E-01   1.00800           0
     10545 MEMB     78       OL       C114     cD      -0.248490E-01   12.0100           0
     10546 MEMB     78       OL       H14R     hL       0.857200E-02   1.00800           0
     10547 MEMB     78       OL       H14S     hL       0.857200E-02   1.00800           0
     10548 MEMB     78       OL       C115     cD      -0.232470E-01   12.0100           0
     10549 MEMB     78       OL       H15R     hL       0.104030E-01   1.00800           0
     10550 MEMB     78       OL       H15S     hL       0.104030E-01   1.00800           0
     10551 MEMB     78       OL       C116     cD      -0.124880E-01   12.0100           0
     10552 MEMB     78       OL       H16R     hL       0.136590E-01   1.00800           0
     10553 MEMB     78       OL       H16S     hL       0.136590E-01   1.00800           0
     10554 MEMB     78       OL       C117     cD       0.868400E-02   12.0100           0
     10555 MEMB     78       OL       H17R     hL       0.100260E-01   1.00800           0
     10556 MEMB     78       OL       H17S     hL       0.100260E-01   1.00800           0
     10557 MEMB     78       OL       C118     cD      -0.117290       12.0100           0
     10558 MEMB     78       OL       H18R     hL       0.266270E-01   1.00800           0
     10559 MEMB     78       OL       H18S     hL       0.266270E-01   1.00800           0
     10560 MEMB     78       OL       H18T     hL       0.266270E-01   1.00800           0
     10561 MEMB     79       PA       C116     cD      -0.125447       12.0100           0
     10562 MEMB     79       PA       H16R     hL       0.290470E-01   1.00800           0
     10563 MEMB     79       PA       H16S     hL       0.290470E-01   1.00800           0
     10564 MEMB     79       PA       H16T     hL       0.290470E-01   1.00800           0
     10565 MEMB     79       PA       C115     cD       0.139750E-01   12.0100           0
     10566 MEMB     79       PA       H15R     hL       0.929200E-02   1.00800           0
     10567 MEMB     79       PA       H15S     hL       0.929200E-02   1.00800           0
     10568 MEMB     79       PA       C114     cD      -0.200860E-01   12.0100           0
     10569 MEMB     79       PA       H14R     hL       0.159290E-01   1.00800           0
     10570 MEMB     79       PA       H14S     hL       0.159290E-01   1.00800           0
     10571 MEMB     79       PA       C113     cD      -0.330960E-01   12.0100           0
     10572 MEMB     79       PA       H13R     hL       0.146210E-01   1.00800           0
     10573 MEMB     79       PA       H13S     hL       0.146210E-01   1.00800           0
     10574 MEMB     79       PA       C112     cD      -0.276330E-01   12.0100           0
     10575 MEMB     79       PA       H12R     hL       0.113680E-01   1.00800           0
     10576 MEMB     79       PA       H12S     hL       0.113680E-01   1.00800           0
     10577 MEMB     79       PA       C111     cD      -0.252060E-01   12.0100           0
     10578 MEMB     79       PA       H11R     hL       0.143340E-01   1.00800           0
     10579 MEMB     79       PA       H11S     hL       0.143340E-01   1.00800           0
     10580 MEMB     79       PA       C110     cD      -0.288310E-01   12.0100           0
     10581 MEMB     79       PA       H10R     hL       0.146910E-01   1.00800           0
     10582 MEMB     79       PA       H10S     hL       0.146910E-01   1.00800           0
     10583 MEMB     79       PA       C19      cD      -0.304720E-01   12.0100           0
     10584 MEMB     79       PA       H9R      hL       0.138970E-01   1.00800           0
     10585 MEMB     79       PA       H9S      hL       0.138970E-01   1.00800           0
     10586 MEMB     79       PA       C18      cD      -0.157930E-01   12.0100           0
     10587 MEMB     79       PA       H8R      hL       0.906700E-02   1.00800           0
     10588 MEMB     79       PA       H8S      hL       0.906700E-02   1.00800           0
     10589 MEMB     79       PA       C17      cD      -0.196300E-01   12.0100           0
     10590 MEMB     79       PA       H7R      hL       0.110410E-01   1.00800           0
     10591 MEMB     79       PA       H7S      hL       0.110410E-01   1.00800           0
     10592 MEMB     79       PA       C16      cD      -0.244270E-01   12.0100           0
     10593 MEMB     79       PA       H6R      hL       0.133340E-01   1.00800           0
     10594 MEMB     79       PA       H6S      hL       0.133340E-01   1.00800           0
     10595 MEMB     79       PA       C15      cD      -0.293870E-01   12.0100           0
     10596 MEMB     79       PA       H5R      hL       0.167630E-01   1.00800           0
     10597 MEMB     79       PA       H5S      hL       0.167630E-01   1.00800           0
     10598 MEMB     79       PA       C14      cD      -0.300990E-01   12.0100           0
     10599 MEMB     79       PA       H4R      hL       0.208770E-01   1.00800           0
     10600 MEMB     79       PA       H4S      hL       0.208770E-01   1.00800           0
     10601 MEMB     79       PA       C13      cD      -0.488200E-02   12.0100           0
     10602 MEMB     79       PA       H3R      hL       0.190070E-01   1.00800           0
     10603 MEMB     79       PA       H3S      hL       0.190070E-01   1.00800           0
     10604 MEMB     79       PA       C12      cD      -0.149259       12.0100           0
     10605 MEMB     79       PA       H2R      hL       0.473450E-01   1.00800           0
     10606 MEMB     79       PA       H2S      hL       0.473450E-01   1.00800           0
     10607 MEMB     79       PC       C11      cC       0.910403       12.0100           0
     10608 MEMB     79       PC       O12      oC      -0.671566       16.0000           0
     10609 MEMB     79       PC       O11      oS      -0.575489       16.0000           0
     10610 MEMB     79       PC       C1       cA       0.196939       12.0100           0
     10611 MEMB     79       PC       HR       hE       0.704690E-01   1.00800           0
     10612 MEMB     79       PC       HS       hE       0.704690E-01   1.00800           0
     10613 MEMB     79       PC       C2       cA       0.281242       12.0100           0
     10614 MEMB     79       PC       HX       hE       0.632530E-01   1.00800           0
     10615 MEMB     79       PC       C3       cA       0.174590E-01   12.0100           0
     10616 MEMB     79       PC       HA       hE       0.955910E-01   1.00800           0
     10617 MEMB     79       PC       HB       hE       0.955910E-01   1.00800           0
     10618 MEMB     79       PC       O31      oT      -0.509480       16.0000           0
     10619 MEMB     79       PC       P31      pA       1.339721       30.9700           0
     10620 MEMB     79       PC       O32      oT      -0.508176       16.0000           0
     10621 MEMB     79       PC       C31      cA       0.166801       12.0100           0
     10622 MEMB     79       PC       H1A      hE       0.785340E-01   1.00800           0
     10623 MEMB     79       PC       H1B      hE       0.785340E-01   1.00800           0
     10624 MEMB     79       PC       C32      cA      -0.170824       12.0100           0
     10625 MEMB     79       PC       H2A      hX       0.136415       1.00800           0
     10626 MEMB     79       PC       H2B      hX       0.136415       1.00800           0
     10627 MEMB     79       PC       N31      nA       0.245262       14.0100           0
     10628 MEMB     79       PC       C33      cA      -0.338973       12.0100           0
     10629 MEMB     79       PC       H3A      hX       0.172230       1.00800           0
     10630 MEMB     79       PC       H3B      hX       0.172230       1.00800           0
     10631 MEMB     79       PC       H3C      hX       0.172230       1.00800           0
     10632 MEMB     79       PC       C34      cA      -0.338973       12.0100           0
     10633 MEMB     79       PC       H4A      hX       0.172230       1.00800           0
     10634 MEMB     79       PC       H4B      hX       0.172230       1.00800           0
     10635 MEMB     79       PC       H4C      hX       0.172230       1.00800           0
     10636 MEMB     79       PC       C35      cA      -0.338973       12.0100           0
     10637 MEMB     79       PC       H5A      hX       0.172230       1.00800           0
     10638 MEMB     79       PC       H5B      hX       0.172230       1.00800           0
     10639 MEMB     79       PC       H5C      hX       0.172230       1.00800           0
     10640 MEMB     79       PC       O33      oP      -0.875812       16.0000           0
     10641 MEMB     79       PC       O34      oP      -0.875812       16.0000           0
     10642 MEMB     79       PC       O21      oS      -0.552948       16.0000           0
     10643 MEMB     79       PC       C21      cC       0.897613       12.0100           0
     10644 MEMB     79       PC       O22      oC      -0.673755       16.0000           0
     10645 MEMB     79       OL       C12      cD      -0.143418       12.0100           0
     10646 MEMB     79       OL       H2R      hL       0.428610E-01   1.00800           0
     10647 MEMB     79       OL       H2S      hL       0.428610E-01   1.00800           0
     10648 MEMB     79       OL       C13      cD       0.161900E-02   12.0100           0
     10649 MEMB     79       OL       H3R      hL       0.195290E-01   1.00800           0
     10650 MEMB     79       OL       H3S      hL       0.195290E-01   1.00800           0
     10651 MEMB     79       OL       C14      cD      -0.229600E-01   12.0100           0
     10652 MEMB     79       OL       H4R      hL       0.181340E-01   1.00800           0
     10653 MEMB     79       OL       H4S      hL       0.181340E-01   1.00800           0
     10654 MEMB     79       OL       C15      cD      -0.166920E-01   12.0100           0
     10655 MEMB     79       OL       H5R      hL       0.869000E-02   1.00800           0
     10656 MEMB     79       OL       H5S      hL       0.869000E-02   1.00800           0
     10657 MEMB     79       OL       C16      cD      -0.237890E-01   12.0100           0
     10658 MEMB     79       OL       H6R      hL       0.926600E-02   1.00800           0
     10659 MEMB     79       OL       H6S      hL       0.926600E-02   1.00800           0
     10660 MEMB     79       OL       C17      cD      -0.174950E-01   12.0100           0
     10661 MEMB     79       OL       H7R      hL       0.195980E-01   1.00800           0
     10662 MEMB     79       OL       H7S      hL       0.195980E-01   1.00800           0
     10663 MEMB     79       OL       C18      cD       0.317750E-01   12.0100           0
     10664 MEMB     79       OL       H8R      hL       0.326850E-01   1.00800           0
     10665 MEMB     79       OL       H8S      hL       0.326850E-01   1.00800           0
     10666 MEMB     79       OL       C19      cB      -0.244228       12.0100           0
     10667 MEMB     79       OL       H9R      hB       0.131512       1.00800           0
     10668 MEMB     79       OL       C110     cB      -0.239284       12.0100           0
     10669 MEMB     79       OL       H10R     hB       0.126878       1.00800           0
     10670 MEMB     79       OL       C111     cD       0.290590E-01   12.0100           0
     10671 MEMB     79       OL       H11R     hL       0.335310E-01   1.00800           0
     10672 MEMB     79       OL       H11S     hL       0.335310E-01   1.00800           0
     10673 MEMB     79       OL       C112     cD      -0.263530E-01   12.0100           0
     10674 MEMB     79       OL       H12R     hL       0.197170E-01   1.00800           0
     10675 MEMB     79       OL       H12S     hL       0.197170E-01   1.00800           0
     10676 MEMB     79       OL       C113     cD      -0.182570E-01   12.0100           0
     10677 MEMB     79       OL       H13R     hL       0.138000E-01   1.00800           0
     10678 MEMB     79       OL       H13S     hL       0.138000E-01   1.00800           0
     10679 MEMB     79       OL       C114     cD      -0.248490E-01   12.0100           0
     10680 MEMB     79       OL       H14R     hL       0.857200E-02   1.00800           0
     10681 MEMB     79       OL       H14S     hL       0.857200E-02   1.00800           0
     10682 MEMB     79       OL       C115     cD      -0.232470E-01   12.0100           0
     10683 MEMB     79       OL       H15R     hL       0.104030E-01   1.00800           0
     10684 MEMB     79       OL       H15S     hL       0.104030E-01   1.00800           0
     10685 MEMB     79       OL       C116     cD      -0.124880E-01   12.0100           0
     10686 MEMB     79       OL       H16R     hL       0.136590E-01   1.00800           0
     10687 MEMB     79       OL       H16S     hL       0.136590E-01   1.00800           0
     10688 MEMB     79       OL       C117     cD       0.868400E-02   12.0100           0
     10689 MEMB     79       OL       H17R     hL       0.100260E-01   1.00800           0
     10690 MEMB     79       OL       H17S     hL       0.100260E-01   1.00800           0
     10691 MEMB     79       OL       C118     cD      -0.117290       12.0100           0
     10692 MEMB     79       OL       H18R     hL       0.266270E-01   1.00800           0
     10693 MEMB     79       OL       H18S     hL       0.266270E-01   1.00800           0
     10694 MEMB     79       OL       H18T     hL       0.266270E-01   1.00800           0
     10695 MEMB     80       PA       C116     cD      -0.125447       12.0100           0
     10696 MEMB     80       PA       H16R     hL       0.290470E-01   1.00800           0
     10697 MEMB     80       PA       H16S     hL       0.290470E-01   1.00800           0
     10698 MEMB     80       PA       H16T     hL       0.290470E-01   1.00800           0
     10699 MEMB     80       PA       C115     cD       0.139750E-01   12.0100           0
     10700 MEMB     80       PA       H15R     hL       0.929200E-02   1.00800           0
     10701 MEMB     80       PA       H15S     hL       0.929200E-02   1.00800           0
     10702 MEMB     80       PA       C114     cD      -0.200860E-01   12.0100           0
     10703 MEMB     80       PA       H14R     hL       0.159290E-01   1.00800           0
     10704 MEMB     80       PA       H14S     hL       0.159290E-01   1.00800           0
     10705 MEMB     80       PA       C113     cD      -0.330960E-01   12.0100           0
     10706 MEMB     80       PA       H13R     hL       0.146210E-01   1.00800           0
     10707 MEMB     80       PA       H13S     hL       0.146210E-01   1.00800           0
     10708 MEMB     80       PA       C112     cD      -0.276330E-01   12.0100           0
     10709 MEMB     80       PA       H12R     hL       0.113680E-01   1.00800           0
     10710 MEMB     80       PA       H12S     hL       0.113680E-01   1.00800           0
     10711 MEMB     80       PA       C111     cD      -0.252060E-01   12.0100           0
     10712 MEMB     80       PA       H11R     hL       0.143340E-01   1.00800           0
     10713 MEMB     80       PA       H11S     hL       0.143340E-01   1.00800           0
     10714 MEMB     80       PA       C110     cD      -0.288310E-01   12.0100           0
     10715 MEMB     80       PA       H10R     hL       0.146910E-01   1.00800           0
     10716 MEMB     80       PA       H10S     hL       0.146910E-01   1.00800           0
     10717 MEMB     80       PA       C19      cD      -0.304720E-01   12.0100           0
     10718 MEMB     80       PA       H9R      hL       0.138970E-01   1.00800           0
     10719 MEMB     80       PA       H9S      hL       0.138970E-01   1.00800           0
     10720 MEMB     80       PA       C18      cD      -0.157930E-01   12.0100           0
     10721 MEMB     80       PA       H8R      hL       0.906700E-02   1.00800           0
     10722 MEMB     80       PA       H8S      hL       0.906700E-02   1.00800           0
     10723 MEMB     80       PA       C17      cD      -0.196300E-01   12.0100           0
     10724 MEMB     80       PA       H7R      hL       0.110410E-01   1.00800           0
     10725 MEMB     80       PA       H7S      hL       0.110410E-01   1.00800           0
     10726 MEMB     80       PA       C16      cD      -0.244270E-01   12.0100           0
     10727 MEMB     80       PA       H6R      hL       0.133340E-01   1.00800           0
     10728 MEMB     80       PA       H6S      hL       0.133340E-01   1.00800           0
     10729 MEMB     80       PA       C15      cD      -0.293870E-01   12.0100           0
     10730 MEMB     80       PA       H5R      hL       0.167630E-01   1.00800           0
     10731 MEMB     80       PA       H5S      hL       0.167630E-01   1.00800           0
     10732 MEMB     80       PA       C14      cD      -0.300990E-01   12.0100           0
     10733 MEMB     80       PA       H4R      hL       0.208770E-01   1.00800           0
     10734 MEMB     80       PA       H4S      hL       0.208770E-01   1.00800           0
     10735 MEMB     80       PA       C13      cD      -0.488200E-02   12.0100           0
     10736 MEMB     80       PA       H3R      hL       0.190070E-01   1.00800           0
     10737 MEMB     80       PA       H3S      hL       0.190070E-01   1.00800           0
     10738 MEMB     80       PA       C12      cD      -0.149259       12.0100           0
     10739 MEMB     80       PA       H2R      hL       0.473450E-01   1.00800           0
     10740 MEMB     80       PA       H2S      hL       0.473450E-01   1.00800           0
     10741 MEMB     80       PC       C11      cC       0.910403       12.0100           0
     10742 MEMB     80       PC       O12      oC      -0.671566       16.0000           0
     10743 MEMB     80       PC       O11      oS      -0.575489       16.0000           0
     10744 MEMB     80       PC       C1       cA       0.196939       12.0100           0
     10745 MEMB     80       PC       HR       hE       0.704690E-01   1.00800           0
     10746 MEMB     80       PC       HS       hE       0.704690E-01   1.00800           0
     10747 MEMB     80       PC       C2       cA       0.281242       12.0100           0
     10748 MEMB     80       PC       HX       hE       0.632530E-01   1.00800           0
     10749 MEMB     80       PC       C3       cA       0.174590E-01   12.0100           0
     10750 MEMB     80       PC       HA       hE       0.955910E-01   1.00800           0
     10751 MEMB     80       PC       HB       hE       0.955910E-01   1.00800           0
     10752 MEMB     80       PC       O31      oT      -0.509480       16.0000           0
     10753 MEMB     80       PC       P31      pA       1.339721       30.9700           0
     10754 MEMB     80       PC       O32      oT      -0.508176       16.0000           0
     10755 MEMB     80       PC       C31      cA       0.166801       12.0100           0
     10756 MEMB     80       PC       H1A      hE       0.785340E-01   1.00800           0
     10757 MEMB     80       PC       H1B      hE       0.785340E-01   1.00800           0
     10758 MEMB     80       PC       C32      cA      -0.170824       12.0100           0
     10759 MEMB     80       PC       H2A      hX       0.136415       1.00800           0
     10760 MEMB     80       PC       H2B      hX       0.136415       1.00800           0
     10761 MEMB     80       PC       N31      nA       0.245262       14.0100           0
     10762 MEMB     80       PC       C33      cA      -0.338973       12.0100           0
     10763 MEMB     80       PC       H3A      hX       0.172230       1.00800           0
     10764 MEMB     80       PC       H3B      hX       0.172230       1.00800           0
     10765 MEMB     80       PC       H3C      hX       0.172230       1.00800           0
     10766 MEMB     80       PC       C34      cA      -0.338973       12.0100           0
     10767 MEMB     80       PC       H4A      hX       0.172230       1.00800           0
     10768 MEMB     80       PC       H4B      hX       0.172230       1.00800           0
     10769 MEMB     80       PC       H4C      hX       0.172230       1.00800           0
     10770 MEMB     80       PC       C35      cA      -0.338973       12.0100           0
     10771 MEMB     80       PC       H5A      hX       0.172230       1.00800           0
     10772 MEMB     80       PC       H5B      hX       0.172230       1.00800           0
     10773 MEMB     80       PC       H5C      hX       0.172230       1.00800           0
     10774 MEMB     80       PC       O33      oP      -0.875812       16.0000           0
     10775 MEMB     80       PC       O34      oP      -0.875812       16.0000           0
     10776 MEMB     80       PC       O21      oS      -0.552948       16.0000           0
     10777 MEMB     80       PC       C21      cC       0.897613       12.0100           0
     10778 MEMB     80       PC       O22      oC      -0.673755       16.0000           0
     10779 MEMB     80       OL       C12      cD      -0.143418       12.0100           0
     10780 MEMB     80       OL       H2R      hL       0.428610E-01   1.00800           0
     10781 MEMB     80       OL       H2S      hL       0.428610E-01   1.00800           0
     10782 MEMB     80       OL       C13      cD       0.161900E-02   12.0100           0
     10783 MEMB     80       OL       H3R      hL       0.195290E-01   1.00800           0
     10784 MEMB     80       OL       H3S      hL       0.195290E-01   1.00800           0
     10785 MEMB     80       OL       C14      cD      -0.229600E-01   12.0100           0
     10786 MEMB     80       OL       H4R      hL       0.181340E-01   1.00800           0
     10787 MEMB     80       OL       H4S      hL       0.181340E-01   1.00800           0
     10788 MEMB     80       OL       C15      cD      -0.166920E-01   12.0100           0
     10789 MEMB     80       OL       H5R      hL       0.869000E-02   1.00800           0
     10790 MEMB     80       OL       H5S      hL       0.869000E-02   1.00800           0
     10791 MEMB     80       OL       C16      cD      -0.237890E-01   12.0100           0
     10792 MEMB     80       OL       H6R      hL       0.926600E-02   1.00800           0
     10793 MEMB     80       OL       H6S      hL       0.926600E-02   1.00800           0
     10794 MEMB     80       OL       C17      cD      -0.174950E-01   12.0100           0
     10795 MEMB     80       OL       H7R      hL       0.195980E-01   1.00800           0
     10796 MEMB     80       OL       H7S      hL       0.195980E-01   1.00800           0
     10797 MEMB     80       OL       C18      cD       0.317750E-01   12.0100           0
     10798 MEMB     80       OL       H8R      hL       0.326850E-01   1.00800           0
     10799 MEMB     80       OL       H8S      hL       0.326850E-01   1.00800           0
     10800 MEMB     80       OL       C19      cB      -0.244228       12.0100           0
     10801 MEMB     80       OL       H9R      hB       0.131512       1.00800           0
     10802 MEMB     80       OL       C110     cB      -0.239284       12.0100           0
     10803 MEMB     80       OL       H10R     hB       0.126878       1.00800           0
     10804 MEMB     80       OL       C111     cD       0.290590E-01   12.0100           0
     10805 MEMB     80       OL       H11R     hL       0.335310E-01   1.00800           0
     10806 MEMB     80       OL       H11S     hL       0.335310E-01   1.00800           0
     10807 MEMB     80       OL       C112     cD      -0.263530E-01   12.0100           0
     10808 MEMB     80       OL       H12R     hL       0.197170E-01   1.00800           0
     10809 MEMB     80       OL       H12S     hL       0.197170E-01   1.00800           0
     10810 MEMB     80       OL       C113     cD      -0.182570E-01   12.0100           0
     10811 MEMB     80       OL       H13R     hL       0.138000E-01   1.00800           0
     10812 MEMB     80       OL       H13S     hL       0.138000E-01   1.00800           0
     10813 MEMB     80       OL       C114     cD      -0.248490E-01   12.0100           0
     10814 MEMB     80       OL       H14R     hL       0.857200E-02   1.00800           0
     10815 MEMB     80       OL       H14S     hL       0.857200E-02   1.00800           0
     10816 MEMB     80       OL       C115     cD      -0.232470E-01   12.0100           0
     10817 MEMB     80       OL       H15R     hL       0.104030E-01   1.00800           0
     10818 MEMB     80       OL       H15S     hL       0.104030E-01   1.00800           0
     10819 MEMB     80       OL       C116     cD      -0.124880E-01   12.0100           0
     10820 MEMB     80       OL       H16R     hL       0.136590E-01   1.00800           0
     10821 MEMB     80       OL       H16S     hL       0.136590E-01   1.00800           0
     10822 MEMB     80       OL       C117     cD       0.868400E-02   12.0100           0
     10823 MEMB     80       OL       H17R     hL       0.100260E-01   1.00800           0
     10824 MEMB     80       OL       H17S     hL       0.100260E-01   1.00800           0
     10825 MEMB     80       OL       C118     cD      -0.117290       12.0100           0
     10826 MEMB     80       OL       H18R     hL       0.266270E-01   1.00800           0
     10827 MEMB     80       OL       H18S     hL       0.266270E-01   1.00800           0
     10828 MEMB     80       OL       H18T     hL       0.266270E-01   1.00800           0
     10829 MEMB     81       PA       C116     cD      -0.125447       12.0100           0
     10830 MEMB     81       PA       H16R     hL       0.290470E-01   1.00800           0
     10831 MEMB     81       PA       H16S     hL       0.290470E-01   1.00800           0
     10832 MEMB     81       PA       H16T     hL       0.290470E-01   1.00800           0
     10833 MEMB     81       PA       C115     cD       0.139750E-01   12.0100           0
     10834 MEMB     81       PA       H15R     hL       0.929200E-02   1.00800           0
     10835 MEMB     81       PA       H15S     hL       0.929200E-02   1.00800           0
     10836 MEMB     81       PA       C114     cD      -0.200860E-01   12.0100           0
     10837 MEMB     81       PA       H14R     hL       0.159290E-01   1.00800           0
     10838 MEMB     81       PA       H14S     hL       0.159290E-01   1.00800           0
     10839 MEMB     81       PA       C113     cD      -0.330960E-01   12.0100           0
     10840 MEMB     81       PA       H13R     hL       0.146210E-01   1.00800           0
     10841 MEMB     81       PA       H13S     hL       0.146210E-01   1.00800           0
     10842 MEMB     81       PA       C112     cD      -0.276330E-01   12.0100           0
     10843 MEMB     81       PA       H12R     hL       0.113680E-01   1.00800           0
     10844 MEMB     81       PA       H12S     hL       0.113680E-01   1.00800           0
     10845 MEMB     81       PA       C111     cD      -0.252060E-01   12.0100           0
     10846 MEMB     81       PA       H11R     hL       0.143340E-01   1.00800           0
     10847 MEMB     81       PA       H11S     hL       0.143340E-01   1.00800           0
     10848 MEMB     81       PA       C110     cD      -0.288310E-01   12.0100           0
     10849 MEMB     81       PA       H10R     hL       0.146910E-01   1.00800           0
     10850 MEMB     81       PA       H10S     hL       0.146910E-01   1.00800           0
     10851 MEMB     81       PA       C19      cD      -0.304720E-01   12.0100           0
     10852 MEMB     81       PA       H9R      hL       0.138970E-01   1.00800           0
     10853 MEMB     81       PA       H9S      hL       0.138970E-01   1.00800           0
     10854 MEMB     81       PA       C18      cD      -0.157930E-01   12.0100           0
     10855 MEMB     81       PA       H8R      hL       0.906700E-02   1.00800           0
     10856 MEMB     81       PA       H8S      hL       0.906700E-02   1.00800           0
     10857 MEMB     81       PA       C17      cD      -0.196300E-01   12.0100           0
     10858 MEMB     81       PA       H7R      hL       0.110410E-01   1.00800           0
     10859 MEMB     81       PA       H7S      hL       0.110410E-01   1.00800           0
     10860 MEMB     81       PA       C16      cD      -0.244270E-01   12.0100           0
     10861 MEMB     81       PA       H6R      hL       0.133340E-01   1.00800           0
     10862 MEMB     81       PA       H6S      hL       0.133340E-01   1.00800           0
     10863 MEMB     81       PA       C15      cD      -0.293870E-01   12.0100           0
     10864 MEMB     81       PA       H5R      hL       0.167630E-01   1.00800           0
     10865 MEMB     81       PA       H5S      hL       0.167630E-01   1.00800           0
     10866 MEMB     81       PA       C14      cD      -0.300990E-01   12.0100           0
     10867 MEMB     81       PA       H4R      hL       0.208770E-01   1.00800           0
     10868 MEMB     81       PA       H4S      hL       0.208770E-01   1.00800           0
     10869 MEMB     81       PA       C13      cD      -0.488200E-02   12.0100           0
     10870 MEMB     81       PA       H3R      hL       0.190070E-01   1.00800           0
     10871 MEMB     81       PA       H3S      hL       0.190070E-01   1.00800           0
     10872 MEMB     81       PA       C12      cD      -0.149259       12.0100           0
     10873 MEMB     81       PA       H2R      hL       0.473450E-01   1.00800           0
     10874 MEMB     81       PA       H2S      hL       0.473450E-01   1.00800           0
     10875 MEMB     81       PC       C11      cC       0.910403       12.0100           0
     10876 MEMB     81       PC       O12      oC      -0.671566       16.0000           0
     10877 MEMB     81       PC       O11      oS      -0.575489       16.0000           0
     10878 MEMB     81       PC       C1       cA       0.196939       12.0100           0
     10879 MEMB     81       PC       HR       hE       0.704690E-01   1.00800           0
     10880 MEMB     81       PC       HS       hE       0.704690E-01   1.00800           0
     10881 MEMB     81       PC       C2       cA       0.281242       12.0100           0
     10882 MEMB     81       PC       HX       hE       0.632530E-01   1.00800           0
     10883 MEMB     81       PC       C3       cA       0.174590E-01   12.0100           0
     10884 MEMB     81       PC       HA       hE       0.955910E-01   1.00800           0
     10885 MEMB     81       PC       HB       hE       0.955910E-01   1.00800           0
     10886 MEMB     81       PC       O31      oT      -0.509480       16.0000           0
     10887 MEMB     81       PC       P31      pA       1.339721       30.9700           0
     10888 MEMB     81       PC       O32      oT      -0.508176       16.0000           0
     10889 MEMB     81       PC       C31      cA       0.166801       12.0100           0
     10890 MEMB     81       PC       H1A      hE       0.785340E-01   1.00800           0
     10891 MEMB     81       PC       H1B      hE       0.785340E-01   1.00800           0
     10892 MEMB     81       PC       C32      cA      -0.170824       12.0100           0
     10893 MEMB     81       PC       H2A      hX       0.136415       1.00800           0
     10894 MEMB     81       PC       H2B      hX       0.136415       1.00800           0
     10895 MEMB     81       PC       N31      nA       0.245262       14.0100           0
     10896 MEMB     81       PC       C33      cA      -0.338973       12.0100           0
     10897 MEMB     81       PC       H3A      hX       0.172230       1.00800           0
     10898 MEMB     81       PC       H3B      hX       0.172230       1.00800           0
     10899 MEMB     81       PC       H3C      hX       0.172230       1.00800           0
     10900 MEMB     81       PC       C34      cA      -0.338973       12.0100           0
     10901 MEMB     81       PC       H4A      hX       0.172230       1.00800           0
     10902 MEMB     81       PC       H4B      hX       0.172230       1.00800           0
     10903 MEMB     81       PC       H4C      hX       0.172230       1.00800           0
     10904 MEMB     81       PC       C35      cA      -0.338973       12.0100           0
     10905 MEMB     81       PC       H5A      hX       0.172230       1.00800           0
     10906 MEMB     81       PC       H5B      hX       0.172230       1.00800           0
     10907 MEMB     81       PC       H5C      hX       0.172230       1.00800           0
     10908 MEMB     81       PC       O33      oP      -0.875812       16.0000           0
     10909 MEMB     81       PC       O34      oP      -0.875812       16.0000           0
     10910 MEMB     81       PC       O21      oS      -0.552948       16.0000           0
     10911 MEMB     81       PC       C21      cC       0.897613       12.0100           0
     10912 MEMB     81       PC       O22      oC      -0.673755       16.0000           0
     10913 MEMB     81       OL       C12      cD      -0.143418       12.0100           0
     10914 MEMB     81       OL       H2R      hL       0.428610E-01   1.00800           0
     10915 MEMB     81       OL       H2S      hL       0.428610E-01   1.00800           0
     10916 MEMB     81       OL       C13      cD       0.161900E-02   12.0100           0
     10917 MEMB     81       OL       H3R      hL       0.195290E-01   1.00800           0
     10918 MEMB     81       OL       H3S      hL       0.195290E-01   1.00800           0
     10919 MEMB     81       OL       C14      cD      -0.229600E-01   12.0100           0
     10920 MEMB     81       OL       H4R      hL       0.181340E-01   1.00800           0
     10921 MEMB     81       OL       H4S      hL       0.181340E-01   1.00800           0
     10922 MEMB     81       OL       C15      cD      -0.166920E-01   12.0100           0
     10923 MEMB     81       OL       H5R      hL       0.869000E-02   1.00800           0
     10924 MEMB     81       OL       H5S      hL       0.869000E-02   1.00800           0
     10925 MEMB     81       OL       C16      cD      -0.237890E-01   12.0100           0
     10926 MEMB     81       OL       H6R      hL       0.926600E-02   1.00800           0
     10927 MEMB     81       OL       H6S      hL       0.926600E-02   1.00800           0
     10928 MEMB     81       OL       C17      cD      -0.174950E-01   12.0100           0
     10929 MEMB     81       OL       H7R      hL       0.195980E-01   1.00800           0
     10930 MEMB     81       OL       H7S      hL       0.195980E-01   1.00800           0
     10931 MEMB     81       OL       C18      cD       0.317750E-01   12.0100           0
     10932 MEMB     81       OL       H8R      hL       0.326850E-01   1.00800           0
     10933 MEMB     81       OL       H8S      hL       0.326850E-01   1.00800           0
     10934 MEMB     81       OL       C19      cB      -0.244228       12.0100           0
     10935 MEMB     81       OL       H9R      hB       0.131512       1.00800           0
     10936 MEMB     81       OL       C110     cB      -0.239284       12.0100           0
     10937 MEMB     81       OL       H10R     hB       0.126878       1.00800           0
     10938 MEMB     81       OL       C111     cD       0.290590E-01   12.0100           0
     10939 MEMB     81       OL       H11R     hL       0.335310E-01   1.00800           0
     10940 MEMB     81       OL       H11S     hL       0.335310E-01   1.00800           0
     10941 MEMB     81       OL       C112     cD      -0.263530E-01   12.0100           0
     10942 MEMB     81       OL       H12R     hL       0.197170E-01   1.00800           0
     10943 MEMB     81       OL       H12S     hL       0.197170E-01   1.00800           0
     10944 MEMB     81       OL       C113     cD      -0.182570E-01   12.0100           0
     10945 MEMB     81       OL       H13R     hL       0.138000E-01   1.00800           0
     10946 MEMB     81       OL       H13S     hL       0.138000E-01   1.00800           0
     10947 MEMB     81       OL       C114     cD      -0.248490E-01   12.0100           0
     10948 MEMB     81       OL       H14R     hL       0.857200E-02   1.00800           0
     10949 MEMB     81       OL       H14S     hL       0.857200E-02   1.00800           0
     10950 MEMB     81       OL       C115     cD      -0.232470E-01   12.0100           0
     10951 MEMB     81       OL       H15R     hL       0.104030E-01   1.00800           0
     10952 MEMB     81       OL       H15S     hL       0.104030E-01   1.00800           0
     10953 MEMB     81       OL       C116     cD      -0.124880E-01   12.0100           0
     10954 MEMB     81       OL       H16R     hL       0.136590E-01   1.00800           0
     10955 MEMB     81       OL       H16S     hL       0.136590E-01   1.00800           0
     10956 MEMB     81       OL       C117     cD       0.868400E-02   12.0100           0
     10957 MEMB     81       OL       H17R     hL       0.100260E-01   1.00800           0
     10958 MEMB     81       OL       H17S     hL       0.100260E-01   1.00800           0
     10959 MEMB     81       OL       C118     cD      -0.117290       12.0100           0
     10960 MEMB     81       OL       H18R     hL       0.266270E-01   1.00800           0
     10961 MEMB     81       OL       H18S     hL       0.266270E-01   1.00800           0
     10962 MEMB     81       OL       H18T     hL       0.266270E-01   1.00800           0
     10963 MEMB     82       PA       C116     cD      -0.125447       12.0100           0
     10964 MEMB     82       PA       H16R     hL       0.290470E-01   1.00800           0
     10965 MEMB     82       PA       H16S     hL       0.290470E-01   1.00800           0
     10966 MEMB     82       PA       H16T     hL       0.290470E-01   1.00800           0
     10967 MEMB     82       PA       C115     cD       0.139750E-01   12.0100           0
     10968 MEMB     82       PA       H15R     hL       0.929200E-02   1.00800           0
     10969 MEMB     82       PA       H15S     hL       0.929200E-02   1.00800           0
     10970 MEMB     82       PA       C114     cD      -0.200860E-01   12.0100           0
     10971 MEMB     82       PA       H14R     hL       0.159290E-01   1.00800           0
     10972 MEMB     82       PA       H14S     hL       0.159290E-01   1.00800           0
     10973 MEMB     82       PA       C113     cD      -0.330960E-01   12.0100           0
     10974 MEMB     82       PA       H13R     hL       0.146210E-01   1.00800           0
     10975 MEMB     82       PA       H13S     hL       0.146210E-01   1.00800           0
     10976 MEMB     82       PA       C112     cD      -0.276330E-01   12.0100           0
     10977 MEMB     82       PA       H12R     hL       0.113680E-01   1.00800           0
     10978 MEMB     82       PA       H12S     hL       0.113680E-01   1.00800           0
     10979 MEMB     82       PA       C111     cD      -0.252060E-01   12.0100           0
     10980 MEMB     82       PA       H11R     hL       0.143340E-01   1.00800           0
     10981 MEMB     82       PA       H11S     hL       0.143340E-01   1.00800           0
     10982 MEMB     82       PA       C110     cD      -0.288310E-01   12.0100           0
     10983 MEMB     82       PA       H10R     hL       0.146910E-01   1.00800           0
     10984 MEMB     82       PA       H10S     hL       0.146910E-01   1.00800           0
     10985 MEMB     82       PA       C19      cD      -0.304720E-01   12.0100           0
     10986 MEMB     82       PA       H9R      hL       0.138970E-01   1.00800           0
     10987 MEMB     82       PA       H9S      hL       0.138970E-01   1.00800           0
     10988 MEMB     82       PA       C18      cD      -0.157930E-01   12.0100           0
     10989 MEMB     82       PA       H8R      hL       0.906700E-02   1.00800           0
     10990 MEMB     82       PA       H8S      hL       0.906700E-02   1.00800           0
     10991 MEMB     82       PA       C17      cD      -0.196300E-01   12.0100           0
     10992 MEMB     82       PA       H7R      hL       0.110410E-01   1.00800           0
     10993 MEMB     82       PA       H7S      hL       0.110410E-01   1.00800           0
     10994 MEMB     82       PA       C16      cD      -0.244270E-01   12.0100           0
     10995 MEMB     82       PA       H6R      hL       0.133340E-01   1.00800           0
     10996 MEMB     82       PA       H6S      hL       0.133340E-01   1.00800           0
     10997 MEMB     82       PA       C15      cD      -0.293870E-01   12.0100           0
     10998 MEMB     82       PA       H5R      hL       0.167630E-01   1.00800           0
     10999 MEMB     82       PA       H5S      hL       0.167630E-01   1.00800           0
     11000 MEMB     82       PA       C14      cD      -0.300990E-01   12.0100           0
     11001 MEMB     82       PA       H4R      hL       0.208770E-01   1.00800           0
     11002 MEMB     82       PA       H4S      hL       0.208770E-01   1.00800           0
     11003 MEMB     82       PA       C13      cD      -0.488200E-02   12.0100           0
     11004 MEMB     82       PA       H3R      hL       0.190070E-01   1.00800           0
     11005 MEMB     82       PA       H3S      hL       0.190070E-01   1.00800           0
     11006 MEMB     82       PA       C12      cD      -0.149259       12.0100           0
     11007 MEMB     82       PA       H2R      hL       0.473450E-01   1.00800           0
     11008 MEMB     82       PA       H2S      hL       0.473450E-01   1.00800           0
     11009 MEMB     82       PC       C11      cC       0.910403       12.0100           0
     11010 MEMB     82       PC       O12      oC      -0.671566       16.0000           0
     11011 MEMB     82       PC       O11      oS      -0.575489       16.0000           0
     11012 MEMB     82       PC       C1       cA       0.196939       12.0100           0
     11013 MEMB     82       PC       HR       hE       0.704690E-01   1.00800           0
     11014 MEMB     82       PC       HS       hE       0.704690E-01   1.00800           0
     11015 MEMB     82       PC       C2       cA       0.281242       12.0100           0
     11016 MEMB     82       PC       HX       hE       0.632530E-01   1.00800           0
     11017 MEMB     82       PC       C3       cA       0.174590E-01   12.0100           0
     11018 MEMB     82       PC       HA       hE       0.955910E-01   1.00800           0
     11019 MEMB     82       PC       HB       hE       0.955910E-01   1.00800           0
     11020 MEMB     82       PC       O31      oT      -0.509480       16.0000           0
     11021 MEMB     82       PC       P31      pA       1.339721       30.9700           0
     11022 MEMB     82       PC       O32      oT      -0.508176       16.0000           0
     11023 MEMB     82       PC       C31      cA       0.166801       12.0100           0
     11024 MEMB     82       PC       H1A      hE       0.785340E-01   1.00800           0
     11025 MEMB     82       PC       H1B      hE       0.785340E-01   1.00800           0
     11026 MEMB     82       PC       C32      cA      -0.170824       12.0100           0
     11027 MEMB     82       PC       H2A      hX       0.136415       1.00800           0
     11028 MEMB     82       PC       H2B      hX       0.136415       1.00800           0
     11029 MEMB     82       PC       N31      nA       0.245262       14.0100           0
     11030 MEMB     82       PC       C33      cA      -0.338973       12.0100           0
     11031 MEMB     82       PC       H3A      hX       0.172230       1.00800           0
     11032 MEMB     82       PC       H3B      hX       0.172230       1.00800           0
     11033 MEMB     82       PC       H3C      hX       0.172230       1.00800           0
     11034 MEMB     82       PC       C34      cA      -0.338973       12.0100           0
     11035 MEMB     82       PC       H4A      hX       0.172230       1.00800           0
     11036 MEMB     82       PC       H4B      hX       0.172230       1.00800           0
     11037 MEMB     82       PC       H4C      hX       0.172230       1.00800           0
     11038 MEMB     82       PC       C35      cA      -0.338973       12.0100           0
     11039 MEMB     82       PC       H5A      hX       0.172230       1.00800           0
     11040 MEMB     82       PC       H5B      hX       0.172230       1.00800           0
     11041 MEMB     82       PC       H5C      hX       0.172230       1.00800           0
     11042 MEMB     82       PC       O33      oP      -0.875812       16.0000           0
     11043 MEMB     82       PC       O34      oP      -0.875812       16.0000           0
     11044 MEMB     82       PC       O21      oS      -0.552948       16.0000           0
     11045 MEMB     82       PC       C21      cC       0.897613       12.0100           0
     11046 MEMB     82       PC       O22      oC      -0.673755       16.0000           0
     11047 MEMB     82       OL       C12      cD      -0.143418       12.0100           0
     11048 MEMB     82       OL       H2R      hL       0.428610E-01   1.00800           0
     11049 MEMB     82       OL       H2S      hL       0.428610E-01   1.00800           0
     11050 MEMB     82       OL       C13      cD       0.161900E-02   12.0100           0
     11051 MEMB     82       OL       H3R      hL       0.195290E-01   1.00800           0
     11052 MEMB     82       OL       H3S      hL       0.195290E-01   1.00800           0
     11053 MEMB     82       OL       C14      cD      -0.229600E-01   12.0100           0
     11054 MEMB     82       OL       H4R      hL       0.181340E-01   1.00800           0
     11055 MEMB     82       OL       H4S      hL       0.181340E-01   1.00800           0
     11056 MEMB     82       OL       C15      cD      -0.166920E-01   12.0100           0
     11057 MEMB     82       OL       H5R      hL       0.869000E-02   1.00800           0
     11058 MEMB     82       OL       H5S      hL       0.869000E-02   1.00800           0
     11059 MEMB     82       OL       C16      cD      -0.237890E-01   12.0100           0
     11060 MEMB     82       OL       H6R      hL       0.926600E-02   1.00800           0
     11061 MEMB     82       OL       H6S      hL       0.926600E-02   1.00800           0
     11062 MEMB     82       OL       C17      cD      -0.174950E-01   12.0100           0
     11063 MEMB     82       OL       H7R      hL       0.195980E-01   1.00800           0
     11064 MEMB     82       OL       H7S      hL       0.195980E-01   1.00800           0
     11065 MEMB     82       OL       C18      cD       0.317750E-01   12.0100           0
     11066 MEMB     82       OL       H8R      hL       0.326850E-01   1.00800           0
     11067 MEMB     82       OL       H8S      hL       0.326850E-01   1.00800           0
     11068 MEMB     82       OL       C19      cB      -0.244228       12.0100           0
     11069 MEMB     82       OL       H9R      hB       0.131512       1.00800           0
     11070 MEMB     82       OL       C110     cB      -0.239284       12.0100           0
     11071 MEMB     82       OL       H10R     hB       0.126878       1.00800           0
     11072 MEMB     82       OL       C111     cD       0.290590E-01   12.0100           0
     11073 MEMB     82       OL       H11R     hL       0.335310E-01   1.00800           0
     11074 MEMB     82       OL       H11S     hL       0.335310E-01   1.00800           0
     11075 MEMB     82       OL       C112     cD      -0.263530E-01   12.0100           0
     11076 MEMB     82       OL       H12R     hL       0.197170E-01   1.00800           0
     11077 MEMB     82       OL       H12S     hL       0.197170E-01   1.00800           0
     11078 MEMB     82       OL       C113     cD      -0.182570E-01   12.0100           0
     11079 MEMB     82       OL       H13R     hL       0.138000E-01   1.00800           0
     11080 MEMB     82       OL       H13S     hL       0.138000E-01   1.00800           0
     11081 MEMB     82       OL       C114     cD      -0.248490E-01   12.0100           0
     11082 MEMB     82       OL       H14R     hL       0.857200E-02   1.00800           0
     11083 MEMB     82       OL       H14S     hL       0.857200E-02   1.00800           0
     11084 MEMB     82       OL       C115     cD      -0.232470E-01   12.0100           0
     11085 MEMB     82       OL       H15R     hL       0.104030E-01   1.00800           0
     11086 MEMB     82       OL       H15S     hL       0.104030E-01   1.00800           0
     11087 MEMB     82       OL       C116     cD      -0.124880E-01   12.0100           0
     11088 MEMB     82       OL       H16R     hL       0.136590E-01   1.00800           0
     11089 MEMB     82       OL       H16S     hL       0.136590E-01   1.00800           0
     11090 MEMB     82       OL       C117     cD       0.868400E-02   12.0100           0
     11091 MEMB     82       OL       H17R     hL       0.100260E-01   1.00800           0
     11092 MEMB     82       OL       H17S     hL       0.100260E-01   1.00800           0
     11093 MEMB     82       OL       C118     cD      -0.117290       12.0100           0
     11094 MEMB     82       OL       H18R     hL       0.266270E-01   1.00800           0
     11095 MEMB     82       OL       H18S     hL       0.266270E-01   1.00800           0
     11096 MEMB     82       OL       H18T     hL       0.266270E-01   1.00800           0
     11097 MEMB     83       PA       C116     cD      -0.125447       12.0100           0
     11098 MEMB     83       PA       H16R     hL       0.290470E-01   1.00800           0
     11099 MEMB     83       PA       H16S     hL       0.290470E-01   1.00800           0
     11100 MEMB     83       PA       H16T     hL       0.290470E-01   1.00800           0
     11101 MEMB     83       PA       C115     cD       0.139750E-01   12.0100           0
     11102 MEMB     83       PA       H15R     hL       0.929200E-02   1.00800           0
     11103 MEMB     83       PA       H15S     hL       0.929200E-02   1.00800           0
     11104 MEMB     83       PA       C114     cD      -0.200860E-01   12.0100           0
     11105 MEMB     83       PA       H14R     hL       0.159290E-01   1.00800           0
     11106 MEMB     83       PA       H14S     hL       0.159290E-01   1.00800           0
     11107 MEMB     83       PA       C113     cD      -0.330960E-01   12.0100           0
     11108 MEMB     83       PA       H13R     hL       0.146210E-01   1.00800           0
     11109 MEMB     83       PA       H13S     hL       0.146210E-01   1.00800           0
     11110 MEMB     83       PA       C112     cD      -0.276330E-01   12.0100           0
     11111 MEMB     83       PA       H12R     hL       0.113680E-01   1.00800           0
     11112 MEMB     83       PA       H12S     hL       0.113680E-01   1.00800           0
     11113 MEMB     83       PA       C111     cD      -0.252060E-01   12.0100           0
     11114 MEMB     83       PA       H11R     hL       0.143340E-01   1.00800           0
     11115 MEMB     83       PA       H11S     hL       0.143340E-01   1.00800           0
     11116 MEMB     83       PA       C110     cD      -0.288310E-01   12.0100           0
     11117 MEMB     83       PA       H10R     hL       0.146910E-01   1.00800           0
     11118 MEMB     83       PA       H10S     hL       0.146910E-01   1.00800           0
     11119 MEMB     83       PA       C19      cD      -0.304720E-01   12.0100           0
     11120 MEMB     83       PA       H9R      hL       0.138970E-01   1.00800           0
     11121 MEMB     83       PA       H9S      hL       0.138970E-01   1.00800           0
     11122 MEMB     83       PA       C18      cD      -0.157930E-01   12.0100           0
     11123 MEMB     83       PA       H8R      hL       0.906700E-02   1.00800           0
     11124 MEMB     83       PA       H8S      hL       0.906700E-02   1.00800           0
     11125 MEMB     83       PA       C17      cD      -0.196300E-01   12.0100           0
     11126 MEMB     83       PA       H7R      hL       0.110410E-01   1.00800           0
     11127 MEMB     83       PA       H7S      hL       0.110410E-01   1.00800           0
     11128 MEMB     83       PA       C16      cD      -0.244270E-01   12.0100           0
     11129 MEMB     83       PA       H6R      hL       0.133340E-01   1.00800           0
     11130 MEMB     83       PA       H6S      hL       0.133340E-01   1.00800           0
     11131 MEMB     83       PA       C15      cD      -0.293870E-01   12.0100           0
     11132 MEMB     83       PA       H5R      hL       0.167630E-01   1.00800           0
     11133 MEMB     83       PA       H5S      hL       0.167630E-01   1.00800           0
     11134 MEMB     83       PA       C14      cD      -0.300990E-01   12.0100           0
     11135 MEMB     83       PA       H4R      hL       0.208770E-01   1.00800           0
     11136 MEMB     83       PA       H4S      hL       0.208770E-01   1.00800           0
     11137 MEMB     83       PA       C13      cD      -0.488200E-02   12.0100           0
     11138 MEMB     83       PA       H3R      hL       0.190070E-01   1.00800           0
     11139 MEMB     83       PA       H3S      hL       0.190070E-01   1.00800           0
     11140 MEMB     83       PA       C12      cD      -0.149259       12.0100           0
     11141 MEMB     83       PA       H2R      hL       0.473450E-01   1.00800           0
     11142 MEMB     83       PA       H2S      hL       0.473450E-01   1.00800           0
     11143 MEMB     83       PC       C11      cC       0.910403       12.0100           0
     11144 MEMB     83       PC       O12      oC      -0.671566       16.0000           0
     11145 MEMB     83       PC       O11      oS      -0.575489       16.0000           0
     11146 MEMB     83       PC       C1       cA       0.196939       12.0100           0
     11147 MEMB     83       PC       HR       hE       0.704690E-01   1.00800           0
     11148 MEMB     83       PC       HS       hE       0.704690E-01   1.00800           0
     11149 MEMB     83       PC       C2       cA       0.281242       12.0100           0
     11150 MEMB     83       PC       HX       hE       0.632530E-01   1.00800           0
     11151 MEMB     83       PC       C3       cA       0.174590E-01   12.0100           0
     11152 MEMB     83       PC       HA       hE       0.955910E-01   1.00800           0
     11153 MEMB     83       PC       HB       hE       0.955910E-01   1.00800           0
     11154 MEMB     83       PC       O31      oT      -0.509480       16.0000           0
     11155 MEMB     83       PC       P31      pA       1.339721       30.9700           0
     11156 MEMB     83       PC       O32      oT      -0.508176       16.0000           0
     11157 MEMB     83       PC       C31      cA       0.166801       12.0100           0
     11158 MEMB     83       PC       H1A      hE       0.785340E-01   1.00800           0
     11159 MEMB     83       PC       H1B      hE       0.785340E-01   1.00800           0
     11160 MEMB     83       PC       C32      cA      -0.170824       12.0100           0
     11161 MEMB     83       PC       H2A      hX       0.136415       1.00800           0
     11162 MEMB     83       PC       H2B      hX       0.136415       1.00800           0
     11163 MEMB     83       PC       N31      nA       0.245262       14.0100           0
     11164 MEMB     83       PC       C33      cA      -0.338973       12.0100           0
     11165 MEMB     83       PC       H3A      hX       0.172230       1.00800           0
     11166 MEMB     83       PC       H3B      hX       0.172230       1.00800           0
     11167 MEMB     83       PC       H3C      hX       0.172230       1.00800           0
     11168 MEMB     83       PC       C34      cA      -0.338973       12.0100           0
     11169 MEMB     83       PC       H4A      hX       0.172230       1.00800           0
     11170 MEMB     83       PC       H4B      hX       0.172230       1.00800           0
     11171 MEMB     83       PC       H4C      hX       0.172230       1.00800           0
     11172 MEMB     83       PC       C35      cA      -0.338973       12.0100           0
     11173 MEMB     83       PC       H5A      hX       0.172230       1.00800           0
     11174 MEMB     83       PC       H5B      hX       0.172230       1.00800           0
     11175 MEMB     83       PC       H5C      hX       0.172230       1.00800           0
     11176 MEMB     83       PC       O33      oP      -0.875812       16.0000           0
     11177 MEMB     83       PC       O34      oP      -0.875812       16.0000           0
     11178 MEMB     83       PC       O21      oS      -0.552948       16.0000           0
     11179 MEMB     83       PC       C21      cC       0.897613       12.0100           0
     11180 MEMB     83       PC       O22      oC      -0.673755       16.0000           0
     11181 MEMB     83       OL       C12      cD      -0.143418       12.0100           0
     11182 MEMB     83       OL       H2R      hL       0.428610E-01   1.00800           0
     11183 MEMB     83       OL       H2S      hL       0.428610E-01   1.00800           0
     11184 MEMB     83       OL       C13      cD       0.161900E-02   12.0100           0
     11185 MEMB     83       OL       H3R      hL       0.195290E-01   1.00800           0
     11186 MEMB     83       OL       H3S      hL       0.195290E-01   1.00800           0
     11187 MEMB     83       OL       C14      cD      -0.229600E-01   12.0100           0
     11188 MEMB     83       OL       H4R      hL       0.181340E-01   1.00800           0
     11189 MEMB     83       OL       H4S      hL       0.181340E-01   1.00800           0
     11190 MEMB     83       OL       C15      cD      -0.166920E-01   12.0100           0
     11191 MEMB     83       OL       H5R      hL       0.869000E-02   1.00800           0
     11192 MEMB     83       OL       H5S      hL       0.869000E-02   1.00800           0
     11193 MEMB     83       OL       C16      cD      -0.237890E-01   12.0100           0
     11194 MEMB     83       OL       H6R      hL       0.926600E-02   1.00800           0
     11195 MEMB     83       OL       H6S      hL       0.926600E-02   1.00800           0
     11196 MEMB     83       OL       C17      cD      -0.174950E-01   12.0100           0
     11197 MEMB     83       OL       H7R      hL       0.195980E-01   1.00800           0
     11198 MEMB     83       OL       H7S      hL       0.195980E-01   1.00800           0
     11199 MEMB     83       OL       C18      cD       0.317750E-01   12.0100           0
     11200 MEMB     83       OL       H8R      hL       0.326850E-01   1.00800           0
     11201 MEMB     83       OL       H8S      hL       0.326850E-01   1.00800           0
     11202 MEMB     83       OL       C19      cB      -0.244228       12.0100           0
     11203 MEMB     83       OL       H9R      hB       0.131512       1.00800           0
     11204 MEMB     83       OL       C110     cB      -0.239284       12.0100           0
     11205 MEMB     83       OL       H10R     hB       0.126878       1.00800           0
     11206 MEMB     83       OL       C111     cD       0.290590E-01   12.0100           0
     11207 MEMB     83       OL       H11R     hL       0.335310E-01   1.00800           0
     11208 MEMB     83       OL       H11S     hL       0.335310E-01   1.00800           0
     11209 MEMB     83       OL       C112     cD      -0.263530E-01   12.0100           0
     11210 MEMB     83       OL       H12R     hL       0.197170E-01   1.00800           0
     11211 MEMB     83       OL       H12S     hL       0.197170E-01   1.00800           0
     11212 MEMB     83       OL       C113     cD      -0.182570E-01   12.0100           0
     11213 MEMB     83       OL       H13R     hL       0.138000E-01   1.00800           0
     11214 MEMB     83       OL       H13S     hL       0.138000E-01   1.00800           0
     11215 MEMB     83       OL       C114     cD      -0.248490E-01   12.0100           0
     11216 MEMB     83       OL       H14R     hL       0.857200E-02   1.00800           0
     11217 MEMB     83       OL       H14S     hL       0.857200E-02   1.00800           0
     11218 MEMB     83       OL       C115     cD      -0.232470E-01   12.0100           0
     11219 MEMB     83       OL       H15R     hL       0.104030E-01   1.00800           0
     11220 MEMB     83       OL       H15S     hL       0.104030E-01   1.00800           0
     11221 MEMB     83       OL       C116     cD      -0.124880E-01   12.0100           0
     11222 MEMB     83       OL       H16R     hL       0.136590E-01   1.00800           0
     11223 MEMB     83       OL       H16S     hL       0.136590E-01   1.00800           0
     11224 MEMB     83       OL       C117     cD       0.868400E-02   12.0100           0
     11225 MEMB     83       OL       H17R     hL       0.100260E-01   1.00800           0
     11226 MEMB     83       OL       H17S     hL       0.100260E-01   1.00800           0
     11227 MEMB     83       OL       C118     cD      -0.117290       12.0100           0
     11228 MEMB     83       OL       H18R     hL       0.266270E-01   1.00800           0
     11229 MEMB     83       OL       H18S     hL       0.266270E-01   1.00800           0
     11230 MEMB     83       OL       H18T     hL       0.266270E-01   1.00800           0
     11231 MEMB     84       PA       C116     cD      -0.125447       12.0100           0
     11232 MEMB     84       PA       H16R     hL       0.290470E-01   1.00800           0
     11233 MEMB     84       PA       H16S     hL       0.290470E-01   1.00800           0
     11234 MEMB     84       PA       H16T     hL       0.290470E-01   1.00800           0
     11235 MEMB     84       PA       C115     cD       0.139750E-01   12.0100           0
     11236 MEMB     84       PA       H15R     hL       0.929200E-02   1.00800           0
     11237 MEMB     84       PA       H15S     hL       0.929200E-02   1.00800           0
     11238 MEMB     84       PA       C114     cD      -0.200860E-01   12.0100           0
     11239 MEMB     84       PA       H14R     hL       0.159290E-01   1.00800           0
     11240 MEMB     84       PA       H14S     hL       0.159290E-01   1.00800           0
     11241 MEMB     84       PA       C113     cD      -0.330960E-01   12.0100           0
     11242 MEMB     84       PA       H13R     hL       0.146210E-01   1.00800           0
     11243 MEMB     84       PA       H13S     hL       0.146210E-01   1.00800           0
     11244 MEMB     84       PA       C112     cD      -0.276330E-01   12.0100           0
     11245 MEMB     84       PA       H12R     hL       0.113680E-01   1.00800           0
     11246 MEMB     84       PA       H12S     hL       0.113680E-01   1.00800           0
     11247 MEMB     84       PA       C111     cD      -0.252060E-01   12.0100           0
     11248 MEMB     84       PA       H11R     hL       0.143340E-01   1.00800           0
     11249 MEMB     84       PA       H11S     hL       0.143340E-01   1.00800           0
     11250 MEMB     84       PA       C110     cD      -0.288310E-01   12.0100           0
     11251 MEMB     84       PA       H10R     hL       0.146910E-01   1.00800           0
     11252 MEMB     84       PA       H10S     hL       0.146910E-01   1.00800           0
     11253 MEMB     84       PA       C19      cD      -0.304720E-01   12.0100           0
     11254 MEMB     84       PA       H9R      hL       0.138970E-01   1.00800           0
     11255 MEMB     84       PA       H9S      hL       0.138970E-01   1.00800           0
     11256 MEMB     84       PA       C18      cD      -0.157930E-01   12.0100           0
     11257 MEMB     84       PA       H8R      hL       0.906700E-02   1.00800           0
     11258 MEMB     84       PA       H8S      hL       0.906700E-02   1.00800           0
     11259 MEMB     84       PA       C17      cD      -0.196300E-01   12.0100           0
     11260 MEMB     84       PA       H7R      hL       0.110410E-01   1.00800           0
     11261 MEMB     84       PA       H7S      hL       0.110410E-01   1.00800           0
     11262 MEMB     84       PA       C16      cD      -0.244270E-01   12.0100           0
     11263 MEMB     84       PA       H6R      hL       0.133340E-01   1.00800           0
     11264 MEMB     84       PA       H6S      hL       0.133340E-01   1.00800           0
     11265 MEMB     84       PA       C15      cD      -0.293870E-01   12.0100           0
     11266 MEMB     84       PA       H5R      hL       0.167630E-01   1.00800           0
     11267 MEMB     84       PA       H5S      hL       0.167630E-01   1.00800           0
     11268 MEMB     84       PA       C14      cD      -0.300990E-01   12.0100           0
     11269 MEMB     84       PA       H4R      hL       0.208770E-01   1.00800           0
     11270 MEMB     84       PA       H4S      hL       0.208770E-01   1.00800           0
     11271 MEMB     84       PA       C13      cD      -0.488200E-02   12.0100           0
     11272 MEMB     84       PA       H3R      hL       0.190070E-01   1.00800           0
     11273 MEMB     84       PA       H3S      hL       0.190070E-01   1.00800           0
     11274 MEMB     84       PA       C12      cD      -0.149259       12.0100           0
     11275 MEMB     84       PA       H2R      hL       0.473450E-01   1.00800           0
     11276 MEMB     84       PA       H2S      hL       0.473450E-01   1.00800           0
     11277 MEMB     84       PC       C11      cC       0.910403       12.0100           0
     11278 MEMB     84       PC       O12      oC      -0.671566       16.0000           0
     11279 MEMB     84       PC       O11      oS      -0.575489       16.0000           0
     11280 MEMB     84       PC       C1       cA       0.196939       12.0100           0
     11281 MEMB     84       PC       HR       hE       0.704690E-01   1.00800           0
     11282 MEMB     84       PC       HS       hE       0.704690E-01   1.00800           0
     11283 MEMB     84       PC       C2       cA       0.281242       12.0100           0
     11284 MEMB     84       PC       HX       hE       0.632530E-01   1.00800           0
     11285 MEMB     84       PC       C3       cA       0.174590E-01   12.0100           0
     11286 MEMB     84       PC       HA       hE       0.955910E-01   1.00800           0
     11287 MEMB     84       PC       HB       hE       0.955910E-01   1.00800           0
     11288 MEMB     84       PC       O31      oT      -0.509480       16.0000           0
     11289 MEMB     84       PC       P31      pA       1.339721       30.9700           0
     11290 MEMB     84       PC       O32      oT      -0.508176       16.0000           0
     11291 MEMB     84       PC       C31      cA       0.166801       12.0100           0
     11292 MEMB     84       PC       H1A      hE       0.785340E-01   1.00800           0
     11293 MEMB     84       PC       H1B      hE       0.785340E-01   1.00800           0
     11294 MEMB     84       PC       C32      cA      -0.170824       12.0100           0
     11295 MEMB     84       PC       H2A      hX       0.136415       1.00800           0
     11296 MEMB     84       PC       H2B      hX       0.136415       1.00800           0
     11297 MEMB     84       PC       N31      nA       0.245262       14.0100           0
     11298 MEMB     84       PC       C33      cA      -0.338973       12.0100           0
     11299 MEMB     84       PC       H3A      hX       0.172230       1.00800           0
     11300 MEMB     84       PC       H3B      hX       0.172230       1.00800           0
     11301 MEMB     84       PC       H3C      hX       0.172230       1.00800           0
     11302 MEMB     84       PC       C34      cA      -0.338973       12.0100           0
     11303 MEMB     84       PC       H4A      hX       0.172230       1.00800           0
     11304 MEMB     84       PC       H4B      hX       0.172230       1.00800           0
     11305 MEMB     84       PC       H4C      hX       0.172230       1.00800           0
     11306 MEMB     84       PC       C35      cA      -0.338973       12.0100           0
     11307 MEMB     84       PC       H5A      hX       0.172230       1.00800           0
     11308 MEMB     84       PC       H5B      hX       0.172230       1.00800           0
     11309 MEMB     84       PC       H5C      hX       0.172230       1.00800           0
     11310 MEMB     84       PC       O33      oP      -0.875812       16.0000           0
     11311 MEMB     84       PC       O34      oP      -0.875812       16.0000           0
     11312 MEMB     84       PC       O21      oS      -0.552948       16.0000           0
     11313 MEMB     84       PC       C21      cC       0.897613       12.0100           0
     11314 MEMB     84       PC       O22      oC      -0.673755       16.0000           0
     11315 MEMB     84       OL       C12      cD      -0.143418       12.0100           0
     11316 MEMB     84       OL       H2R      hL       0.428610E-01   1.00800           0
     11317 MEMB     84       OL       H2S      hL       0.428610E-01   1.00800           0
     11318 MEMB     84       OL       C13      cD       0.161900E-02   12.0100           0
     11319 MEMB     84       OL       H3R      hL       0.195290E-01   1.00800           0
     11320 MEMB     84       OL       H3S      hL       0.195290E-01   1.00800           0
     11321 MEMB     84       OL       C14      cD      -0.229600E-01   12.0100           0
     11322 MEMB     84       OL       H4R      hL       0.181340E-01   1.00800           0
     11323 MEMB     84       OL       H4S      hL       0.181340E-01   1.00800           0
     11324 MEMB     84       OL       C15      cD      -0.166920E-01   12.0100           0
     11325 MEMB     84       OL       H5R      hL       0.869000E-02   1.00800           0
     11326 MEMB     84       OL       H5S      hL       0.869000E-02   1.00800           0
     11327 MEMB     84       OL       C16      cD      -0.237890E-01   12.0100           0
     11328 MEMB     84       OL       H6R      hL       0.926600E-02   1.00800           0
     11329 MEMB     84       OL       H6S      hL       0.926600E-02   1.00800           0
     11330 MEMB     84       OL       C17      cD      -0.174950E-01   12.0100           0
     11331 MEMB     84       OL       H7R      hL       0.195980E-01   1.00800           0
     11332 MEMB     84       OL       H7S      hL       0.195980E-01   1.00800           0
     11333 MEMB     84       OL       C18      cD       0.317750E-01   12.0100           0
     11334 MEMB     84       OL       H8R      hL       0.326850E-01   1.00800           0
     11335 MEMB     84       OL       H8S      hL       0.326850E-01   1.00800           0
     11336 MEMB     84       OL       C19      cB      -0.244228       12.0100           0
     11337 MEMB     84       OL       H9R      hB       0.131512       1.00800           0
     11338 MEMB     84       OL       C110     cB      -0.239284       12.0100           0
     11339 MEMB     84       OL       H10R     hB       0.126878       1.00800           0
     11340 MEMB     84       OL       C111     cD       0.290590E-01   12.0100           0
     11341 MEMB     84       OL       H11R     hL       0.335310E-01   1.00800           0
     11342 MEMB     84       OL       H11S     hL       0.335310E-01   1.00800           0
     11343 MEMB     84       OL       C112     cD      -0.263530E-01   12.0100           0
     11344 MEMB     84       OL       H12R     hL       0.197170E-01   1.00800           0
     11345 MEMB     84       OL       H12S     hL       0.197170E-01   1.00800           0
     11346 MEMB     84       OL       C113     cD      -0.182570E-01   12.0100           0
     11347 MEMB     84       OL       H13R     hL       0.138000E-01   1.00800           0
     11348 MEMB     84       OL       H13S     hL       0.138000E-01   1.00800           0
     11349 MEMB     84       OL       C114     cD      -0.248490E-01   12.0100           0
     11350 MEMB     84       OL       H14R     hL       0.857200E-02   1.00800           0
     11351 MEMB     84       OL       H14S     hL       0.857200E-02   1.00800           0
     11352 MEMB     84       OL       C115     cD      -0.232470E-01   12.0100           0
     11353 MEMB     84       OL       H15R     hL       0.104030E-01   1.00800           0
     11354 MEMB     84       OL       H15S     hL       0.104030E-01   1.00800           0
     11355 MEMB     84       OL       C116     cD      -0.124880E-01   12.0100           0
     11356 MEMB     84       OL       H16R     hL       0.136590E-01   1.00800           0
     11357 MEMB     84       OL       H16S     hL       0.136590E-01   1.00800           0
     11358 MEMB     84       OL       C117     cD       0.868400E-02   12.0100           0
     11359 MEMB     84       OL       H17R     hL       0.100260E-01   1.00800           0
     11360 MEMB     84       OL       H17S     hL       0.100260E-01   1.00800           0
     11361 MEMB     84       OL       C118     cD      -0.117290       12.0100           0
     11362 MEMB     84       OL       H18R     hL       0.266270E-01   1.00800           0
     11363 MEMB     84       OL       H18S     hL       0.266270E-01   1.00800           0
     11364 MEMB     84       OL       H18T     hL       0.266270E-01   1.00800           0
     11365 MEMB     85       PA       C116     cD      -0.125447       12.0100           0
     11366 MEMB     85       PA       H16R     hL       0.290470E-01   1.00800           0
     11367 MEMB     85       PA       H16S     hL       0.290470E-01   1.00800           0
     11368 MEMB     85       PA       H16T     hL       0.290470E-01   1.00800           0
     11369 MEMB     85       PA       C115     cD       0.139750E-01   12.0100           0
     11370 MEMB     85       PA       H15R     hL       0.929200E-02   1.00800           0
     11371 MEMB     85       PA       H15S     hL       0.929200E-02   1.00800           0
     11372 MEMB     85       PA       C114     cD      -0.200860E-01   12.0100           0
     11373 MEMB     85       PA       H14R     hL       0.159290E-01   1.00800           0
     11374 MEMB     85       PA       H14S     hL       0.159290E-01   1.00800           0
     11375 MEMB     85       PA       C113     cD      -0.330960E-01   12.0100           0
     11376 MEMB     85       PA       H13R     hL       0.146210E-01   1.00800           0
     11377 MEMB     85       PA       H13S     hL       0.146210E-01   1.00800           0
     11378 MEMB     85       PA       C112     cD      -0.276330E-01   12.0100           0
     11379 MEMB     85       PA       H12R     hL       0.113680E-01   1.00800           0
     11380 MEMB     85       PA       H12S     hL       0.113680E-01   1.00800           0
     11381 MEMB     85       PA       C111     cD      -0.252060E-01   12.0100           0
     11382 MEMB     85       PA       H11R     hL       0.143340E-01   1.00800           0
     11383 MEMB     85       PA       H11S     hL       0.143340E-01   1.00800           0
     11384 MEMB     85       PA       C110     cD      -0.288310E-01   12.0100           0
     11385 MEMB     85       PA       H10R     hL       0.146910E-01   1.00800           0
     11386 MEMB     85       PA       H10S     hL       0.146910E-01   1.00800           0
     11387 MEMB     85       PA       C19      cD      -0.304720E-01   12.0100           0
     11388 MEMB     85       PA       H9R      hL       0.138970E-01   1.00800           0
     11389 MEMB     85       PA       H9S      hL       0.138970E-01   1.00800           0
     11390 MEMB     85       PA       C18      cD      -0.157930E-01   12.0100           0
     11391 MEMB     85       PA       H8R      hL       0.906700E-02   1.00800           0
     11392 MEMB     85       PA       H8S      hL       0.906700E-02   1.00800           0
     11393 MEMB     85       PA       C17      cD      -0.196300E-01   12.0100           0
     11394 MEMB     85       PA       H7R      hL       0.110410E-01   1.00800           0
     11395 MEMB     85       PA       H7S      hL       0.110410E-01   1.00800           0
     11396 MEMB     85       PA       C16      cD      -0.244270E-01   12.0100           0
     11397 MEMB     85       PA       H6R      hL       0.133340E-01   1.00800           0
     11398 MEMB     85       PA       H6S      hL       0.133340E-01   1.00800           0
     11399 MEMB     85       PA       C15      cD      -0.293870E-01   12.0100           0
     11400 MEMB     85       PA       H5R      hL       0.167630E-01   1.00800           0
     11401 MEMB     85       PA       H5S      hL       0.167630E-01   1.00800           0
     11402 MEMB     85       PA       C14      cD      -0.300990E-01   12.0100           0
     11403 MEMB     85       PA       H4R      hL       0.208770E-01   1.00800           0
     11404 MEMB     85       PA       H4S      hL       0.208770E-01   1.00800           0
     11405 MEMB     85       PA       C13      cD      -0.488200E-02   12.0100           0
     11406 MEMB     85       PA       H3R      hL       0.190070E-01   1.00800           0
     11407 MEMB     85       PA       H3S      hL       0.190070E-01   1.00800           0
     11408 MEMB     85       PA       C12      cD      -0.149259       12.0100           0
     11409 MEMB     85       PA       H2R      hL       0.473450E-01   1.00800           0
     11410 MEMB     85       PA       H2S      hL       0.473450E-01   1.00800           0
     11411 MEMB     85       PC       C11      cC       0.910403       12.0100           0
     11412 MEMB     85       PC       O12      oC      -0.671566       16.0000           0
     11413 MEMB     85       PC       O11      oS      -0.575489       16.0000           0
     11414 MEMB     85       PC       C1       cA       0.196939       12.0100           0
     11415 MEMB     85       PC       HR       hE       0.704690E-01   1.00800           0
     11416 MEMB     85       PC       HS       hE       0.704690E-01   1.00800           0
     11417 MEMB     85       PC       C2       cA       0.281242       12.0100           0
     11418 MEMB     85       PC       HX       hE       0.632530E-01   1.00800           0
     11419 MEMB     85       PC       C3       cA       0.174590E-01   12.0100           0
     11420 MEMB     85       PC       HA       hE       0.955910E-01   1.00800           0
     11421 MEMB     85       PC       HB       hE       0.955910E-01   1.00800           0
     11422 MEMB     85       PC       O31      oT      -0.509480       16.0000           0
     11423 MEMB     85       PC       P31      pA       1.339721       30.9700           0
     11424 MEMB     85       PC       O32      oT      -0.508176       16.0000           0
     11425 MEMB     85       PC       C31      cA       0.166801       12.0100           0
     11426 MEMB     85       PC       H1A      hE       0.785340E-01   1.00800           0
     11427 MEMB     85       PC       H1B      hE       0.785340E-01   1.00800           0
     11428 MEMB     85       PC       C32      cA      -0.170824       12.0100           0
     11429 MEMB     85       PC       H2A      hX       0.136415       1.00800           0
     11430 MEMB     85       PC       H2B      hX       0.136415       1.00800           0
     11431 MEMB     85       PC       N31      nA       0.245262       14.0100           0
     11432 MEMB     85       PC       C33      cA      -0.338973       12.0100           0
     11433 MEMB     85       PC       H3A      hX       0.172230       1.00800           0
     11434 MEMB     85       PC       H3B      hX       0.172230       1.00800           0
     11435 MEMB     85       PC       H3C      hX       0.172230       1.00800           0
     11436 MEMB     85       PC       C34      cA      -0.338973       12.0100           0
     11437 MEMB     85       PC       H4A      hX       0.172230       1.00800           0
     11438 MEMB     85       PC       H4B      hX       0.172230       1.00800           0
     11439 MEMB     85       PC       H4C      hX       0.172230       1.00800           0
     11440 MEMB     85       PC       C35      cA      -0.338973       12.0100           0
     11441 MEMB     85       PC       H5A      hX       0.172230       1.00800           0
     11442 MEMB     85       PC       H5B      hX       0.172230       1.00800           0
     11443 MEMB     85       PC       H5C      hX       0.172230       1.00800           0
     11444 MEMB     85       PC       O33      oP      -0.875812       16.0000           0
     11445 MEMB     85       PC       O34      oP      -0.875812       16.0000           0
     11446 MEMB     85       PC       O21      oS      -0.552948       16.0000           0
     11447 MEMB     85       PC       C21      cC       0.897613       12.0100           0
     11448 MEMB     85       PC       O22      oC      -0.673755       16.0000           0
     11449 MEMB     85       OL       C12      cD      -0.143418       12.0100           0
     11450 MEMB     85       OL       H2R      hL       0.428610E-01   1.00800           0
     11451 MEMB     85       OL       H2S      hL       0.428610E-01   1.00800           0
     11452 MEMB     85       OL       C13      cD       0.161900E-02   12.0100           0
     11453 MEMB     85       OL       H3R      hL       0.195290E-01   1.00800           0
     11454 MEMB     85       OL       H3S      hL       0.195290E-01   1.00800           0
     11455 MEMB     85       OL       C14      cD      -0.229600E-01   12.0100           0
     11456 MEMB     85       OL       H4R      hL       0.181340E-01   1.00800           0
     11457 MEMB     85       OL       H4S      hL       0.181340E-01   1.00800           0
     11458 MEMB     85       OL       C15      cD      -0.166920E-01   12.0100           0
     11459 MEMB     85       OL       H5R      hL       0.869000E-02   1.00800           0
     11460 MEMB     85       OL       H5S      hL       0.869000E-02   1.00800           0
     11461 MEMB     85       OL       C16      cD      -0.237890E-01   12.0100           0
     11462 MEMB     85       OL       H6R      hL       0.926600E-02   1.00800           0
     11463 MEMB     85       OL       H6S      hL       0.926600E-02   1.00800           0
     11464 MEMB     85       OL       C17      cD      -0.174950E-01   12.0100           0
     11465 MEMB     85       OL       H7R      hL       0.195980E-01   1.00800           0
     11466 MEMB     85       OL       H7S      hL       0.195980E-01   1.00800           0
     11467 MEMB     85       OL       C18      cD       0.317750E-01   12.0100           0
     11468 MEMB     85       OL       H8R      hL       0.326850E-01   1.00800           0
     11469 MEMB     85       OL       H8S      hL       0.326850E-01   1.00800           0
     11470 MEMB     85       OL       C19      cB      -0.244228       12.0100           0
     11471 MEMB     85       OL       H9R      hB       0.131512       1.00800           0
     11472 MEMB     85       OL       C110     cB      -0.239284       12.0100           0
     11473 MEMB     85       OL       H10R     hB       0.126878       1.00800           0
     11474 MEMB     85       OL       C111     cD       0.290590E-01   12.0100           0
     11475 MEMB     85       OL       H11R     hL       0.335310E-01   1.00800           0
     11476 MEMB     85       OL       H11S     hL       0.335310E-01   1.00800           0
     11477 MEMB     85       OL       C112     cD      -0.263530E-01   12.0100           0
     11478 MEMB     85       OL       H12R     hL       0.197170E-01   1.00800           0
     11479 MEMB     85       OL       H12S     hL       0.197170E-01   1.00800           0
     11480 MEMB     85       OL       C113     cD      -0.182570E-01   12.0100           0
     11481 MEMB     85       OL       H13R     hL       0.138000E-01   1.00800           0
     11482 MEMB     85       OL       H13S     hL       0.138000E-01   1.00800           0
     11483 MEMB     85       OL       C114     cD      -0.248490E-01   12.0100           0
     11484 MEMB     85       OL       H14R     hL       0.857200E-02   1.00800           0
     11485 MEMB     85       OL       H14S     hL       0.857200E-02   1.00800           0
     11486 MEMB     85       OL       C115     cD      -0.232470E-01   12.0100           0
     11487 MEMB     85       OL       H15R     hL       0.104030E-01   1.00800           0
     11488 MEMB     85       OL       H15S     hL       0.104030E-01   1.00800           0
     11489 MEMB     85       OL       C116     cD      -0.124880E-01   12.0100           0
     11490 MEMB     85       OL       H16R     hL       0.136590E-01   1.00800           0
     11491 MEMB     85       OL       H16S     hL       0.136590E-01   1.00800           0
     11492 MEMB     85       OL       C117     cD       0.868400E-02   12.0100           0
     11493 MEMB     85       OL       H17R     hL       0.100260E-01   1.00800           0
     11494 MEMB     85       OL       H17S     hL       0.100260E-01   1.00800           0
     11495 MEMB     85       OL       C118     cD      -0.117290       12.0100           0
     11496 MEMB     85       OL       H18R     hL       0.266270E-01   1.00800           0
     11497 MEMB     85       OL       H18S     hL       0.266270E-01   1.00800           0
     11498 MEMB     85       OL       H18T     hL       0.266270E-01   1.00800           0
     11499 MEMB     86       PA       C116     cD      -0.125447       12.0100           0
     11500 MEMB     86       PA       H16R     hL       0.290470E-01   1.00800           0
     11501 MEMB     86       PA       H16S     hL       0.290470E-01   1.00800           0
     11502 MEMB     86       PA       H16T     hL       0.290470E-01   1.00800           0
     11503 MEMB     86       PA       C115     cD       0.139750E-01   12.0100           0
     11504 MEMB     86       PA       H15R     hL       0.929200E-02   1.00800           0
     11505 MEMB     86       PA       H15S     hL       0.929200E-02   1.00800           0
     11506 MEMB     86       PA       C114     cD      -0.200860E-01   12.0100           0
     11507 MEMB     86       PA       H14R     hL       0.159290E-01   1.00800           0
     11508 MEMB     86       PA       H14S     hL       0.159290E-01   1.00800           0
     11509 MEMB     86       PA       C113     cD      -0.330960E-01   12.0100           0
     11510 MEMB     86       PA       H13R     hL       0.146210E-01   1.00800           0
     11511 MEMB     86       PA       H13S     hL       0.146210E-01   1.00800           0
     11512 MEMB     86       PA       C112     cD      -0.276330E-01   12.0100           0
     11513 MEMB     86       PA       H12R     hL       0.113680E-01   1.00800           0
     11514 MEMB     86       PA       H12S     hL       0.113680E-01   1.00800           0
     11515 MEMB     86       PA       C111     cD      -0.252060E-01   12.0100           0
     11516 MEMB     86       PA       H11R     hL       0.143340E-01   1.00800           0
     11517 MEMB     86       PA       H11S     hL       0.143340E-01   1.00800           0
     11518 MEMB     86       PA       C110     cD      -0.288310E-01   12.0100           0
     11519 MEMB     86       PA       H10R     hL       0.146910E-01   1.00800           0
     11520 MEMB     86       PA       H10S     hL       0.146910E-01   1.00800           0
     11521 MEMB     86       PA       C19      cD      -0.304720E-01   12.0100           0
     11522 MEMB     86       PA       H9R      hL       0.138970E-01   1.00800           0
     11523 MEMB     86       PA       H9S      hL       0.138970E-01   1.00800           0
     11524 MEMB     86       PA       C18      cD      -0.157930E-01   12.0100           0
     11525 MEMB     86       PA       H8R      hL       0.906700E-02   1.00800           0
     11526 MEMB     86       PA       H8S      hL       0.906700E-02   1.00800           0
     11527 MEMB     86       PA       C17      cD      -0.196300E-01   12.0100           0
     11528 MEMB     86       PA       H7R      hL       0.110410E-01   1.00800           0
     11529 MEMB     86       PA       H7S      hL       0.110410E-01   1.00800           0
     11530 MEMB     86       PA       C16      cD      -0.244270E-01   12.0100           0
     11531 MEMB     86       PA       H6R      hL       0.133340E-01   1.00800           0
     11532 MEMB     86       PA       H6S      hL       0.133340E-01   1.00800           0
     11533 MEMB     86       PA       C15      cD      -0.293870E-01   12.0100           0
     11534 MEMB     86       PA       H5R      hL       0.167630E-01   1.00800           0
     11535 MEMB     86       PA       H5S      hL       0.167630E-01   1.00800           0
     11536 MEMB     86       PA       C14      cD      -0.300990E-01   12.0100           0
     11537 MEMB     86       PA       H4R      hL       0.208770E-01   1.00800           0
     11538 MEMB     86       PA       H4S      hL       0.208770E-01   1.00800           0
     11539 MEMB     86       PA       C13      cD      -0.488200E-02   12.0100           0
     11540 MEMB     86       PA       H3R      hL       0.190070E-01   1.00800           0
     11541 MEMB     86       PA       H3S      hL       0.190070E-01   1.00800           0
     11542 MEMB     86       PA       C12      cD      -0.149259       12.0100           0
     11543 MEMB     86       PA       H2R      hL       0.473450E-01   1.00800           0
     11544 MEMB     86       PA       H2S      hL       0.473450E-01   1.00800           0
     11545 MEMB     86       PC       C11      cC       0.910403       12.0100           0
     11546 MEMB     86       PC       O12      oC      -0.671566       16.0000           0
     11547 MEMB     86       PC       O11      oS      -0.575489       16.0000           0
     11548 MEMB     86       PC       C1       cA       0.196939       12.0100           0
     11549 MEMB     86       PC       HR       hE       0.704690E-01   1.00800           0
     11550 MEMB     86       PC       HS       hE       0.704690E-01   1.00800           0
     11551 MEMB     86       PC       C2       cA       0.281242       12.0100           0
     11552 MEMB     86       PC       HX       hE       0.632530E-01   1.00800           0
     11553 MEMB     86       PC       C3       cA       0.174590E-01   12.0100           0
     11554 MEMB     86       PC       HA       hE       0.955910E-01   1.00800           0
     11555 MEMB     86       PC       HB       hE       0.955910E-01   1.00800           0
     11556 MEMB     86       PC       O31      oT      -0.509480       16.0000           0
     11557 MEMB     86       PC       P31      pA       1.339721       30.9700           0
     11558 MEMB     86       PC       O32      oT      -0.508176       16.0000           0
     11559 MEMB     86       PC       C31      cA       0.166801       12.0100           0
     11560 MEMB     86       PC       H1A      hE       0.785340E-01   1.00800           0
     11561 MEMB     86       PC       H1B      hE       0.785340E-01   1.00800           0
     11562 MEMB     86       PC       C32      cA      -0.170824       12.0100           0
     11563 MEMB     86       PC       H2A      hX       0.136415       1.00800           0
     11564 MEMB     86       PC       H2B      hX       0.136415       1.00800           0
     11565 MEMB     86       PC       N31      nA       0.245262       14.0100           0
     11566 MEMB     86       PC       C33      cA      -0.338973       12.0100           0
     11567 MEMB     86       PC       H3A      hX       0.172230       1.00800           0
     11568 MEMB     86       PC       H3B      hX       0.172230       1.00800           0
     11569 MEMB     86       PC       H3C      hX       0.172230       1.00800           0
     11570 MEMB     86       PC       C34      cA      -0.338973       12.0100           0
     11571 MEMB     86       PC       H4A      hX       0.172230       1.00800           0
     11572 MEMB     86       PC       H4B      hX       0.172230       1.00800           0
     11573 MEMB     86       PC       H4C      hX       0.172230       1.00800           0
     11574 MEMB     86       PC       C35      cA      -0.338973       12.0100           0
     11575 MEMB     86       PC       H5A      hX       0.172230       1.00800           0
     11576 MEMB     86       PC       H5B      hX       0.172230       1.00800           0
     11577 MEMB     86       PC       H5C      hX       0.172230       1.00800           0
     11578 MEMB     86       PC       O33      oP      -0.875812       16.0000           0
     11579 MEMB     86       PC       O34      oP      -0.875812       16.0000           0
     11580 MEMB     86       PC       O21      oS      -0.552948       16.0000           0
     11581 MEMB     86       PC       C21      cC       0.897613       12.0100           0
     11582 MEMB     86       PC       O22      oC      -0.673755       16.0000           0
     11583 MEMB     86       OL       C12      cD      -0.143418       12.0100           0
     11584 MEMB     86       OL       H2R      hL       0.428610E-01   1.00800           0
     11585 MEMB     86       OL       H2S      hL       0.428610E-01   1.00800           0
     11586 MEMB     86       OL       C13      cD       0.161900E-02   12.0100           0
     11587 MEMB     86       OL       H3R      hL       0.195290E-01   1.00800           0
     11588 MEMB     86       OL       H3S      hL       0.195290E-01   1.00800           0
     11589 MEMB     86       OL       C14      cD      -0.229600E-01   12.0100           0
     11590 MEMB     86       OL       H4R      hL       0.181340E-01   1.00800           0
     11591 MEMB     86       OL       H4S      hL       0.181340E-01   1.00800           0
     11592 MEMB     86       OL       C15      cD      -0.166920E-01   12.0100           0
     11593 MEMB     86       OL       H5R      hL       0.869000E-02   1.00800           0
     11594 MEMB     86       OL       H5S      hL       0.869000E-02   1.00800           0
     11595 MEMB     86       OL       C16      cD      -0.237890E-01   12.0100           0
     11596 MEMB     86       OL       H6R      hL       0.926600E-02   1.00800           0
     11597 MEMB     86       OL       H6S      hL       0.926600E-02   1.00800           0
     11598 MEMB     86       OL       C17      cD      -0.174950E-01   12.0100           0
     11599 MEMB     86       OL       H7R      hL       0.195980E-01   1.00800           0
     11600 MEMB     86       OL       H7S      hL       0.195980E-01   1.00800           0
     11601 MEMB     86       OL       C18      cD       0.317750E-01   12.0100           0
     11602 MEMB     86       OL       H8R      hL       0.326850E-01   1.00800           0
     11603 MEMB     86       OL       H8S      hL       0.326850E-01   1.00800           0
     11604 MEMB     86       OL       C19      cB      -0.244228       12.0100           0
     11605 MEMB     86       OL       H9R      hB       0.131512       1.00800           0
     11606 MEMB     86       OL       C110     cB      -0.239284       12.0100           0
     11607 MEMB     86       OL       H10R     hB       0.126878       1.00800           0
     11608 MEMB     86       OL       C111     cD       0.290590E-01   12.0100           0
     11609 MEMB     86       OL       H11R     hL       0.335310E-01   1.00800           0
     11610 MEMB     86       OL       H11S     hL       0.335310E-01   1.00800           0
     11611 MEMB     86       OL       C112     cD      -0.263530E-01   12.0100           0
     11612 MEMB     86       OL       H12R     hL       0.197170E-01   1.00800           0
     11613 MEMB     86       OL       H12S     hL       0.197170E-01   1.00800           0
     11614 MEMB     86       OL       C113     cD      -0.182570E-01   12.0100           0
     11615 MEMB     86       OL       H13R     hL       0.138000E-01   1.00800           0
     11616 MEMB     86       OL       H13S     hL       0.138000E-01   1.00800           0
     11617 MEMB     86       OL       C114     cD      -0.248490E-01   12.0100           0
     11618 MEMB     86       OL       H14R     hL       0.857200E-02   1.00800           0
     11619 MEMB     86       OL       H14S     hL       0.857200E-02   1.00800           0
     11620 MEMB     86       OL       C115     cD      -0.232470E-01   12.0100           0
     11621 MEMB     86       OL       H15R     hL       0.104030E-01   1.00800           0
     11622 MEMB     86       OL       H15S     hL       0.104030E-01   1.00800           0
     11623 MEMB     86       OL       C116     cD      -0.124880E-01   12.0100           0
     11624 MEMB     86       OL       H16R     hL       0.136590E-01   1.00800           0
     11625 MEMB     86       OL       H16S     hL       0.136590E-01   1.00800           0
     11626 MEMB     86       OL       C117     cD       0.868400E-02   12.0100           0
     11627 MEMB     86       OL       H17R     hL       0.100260E-01   1.00800           0
     11628 MEMB     86       OL       H17S     hL       0.100260E-01   1.00800           0
     11629 MEMB     86       OL       C118     cD      -0.117290       12.0100           0
     11630 MEMB     86       OL       H18R     hL       0.266270E-01   1.00800           0
     11631 MEMB     86       OL       H18S     hL       0.266270E-01   1.00800           0
     11632 MEMB     86       OL       H18T     hL       0.266270E-01   1.00800           0
     11633 MEMB     87       PA       C116     cD      -0.125447       12.0100           0
     11634 MEMB     87       PA       H16R     hL       0.290470E-01   1.00800           0
     11635 MEMB     87       PA       H16S     hL       0.290470E-01   1.00800           0
     11636 MEMB     87       PA       H16T     hL       0.290470E-01   1.00800           0
     11637 MEMB     87       PA       C115     cD       0.139750E-01   12.0100           0
     11638 MEMB     87       PA       H15R     hL       0.929200E-02   1.00800           0
     11639 MEMB     87       PA       H15S     hL       0.929200E-02   1.00800           0
     11640 MEMB     87       PA       C114     cD      -0.200860E-01   12.0100           0
     11641 MEMB     87       PA       H14R     hL       0.159290E-01   1.00800           0
     11642 MEMB     87       PA       H14S     hL       0.159290E-01   1.00800           0
     11643 MEMB     87       PA       C113     cD      -0.330960E-01   12.0100           0
     11644 MEMB     87       PA       H13R     hL       0.146210E-01   1.00800           0
     11645 MEMB     87       PA       H13S     hL       0.146210E-01   1.00800           0
     11646 MEMB     87       PA       C112     cD      -0.276330E-01   12.0100           0
     11647 MEMB     87       PA       H12R     hL       0.113680E-01   1.00800           0
     11648 MEMB     87       PA       H12S     hL       0.113680E-01   1.00800           0
     11649 MEMB     87       PA       C111     cD      -0.252060E-01   12.0100           0
     11650 MEMB     87       PA       H11R     hL       0.143340E-01   1.00800           0
     11651 MEMB     87       PA       H11S     hL       0.143340E-01   1.00800           0
     11652 MEMB     87       PA       C110     cD      -0.288310E-01   12.0100           0
     11653 MEMB     87       PA       H10R     hL       0.146910E-01   1.00800           0
     11654 MEMB     87       PA       H10S     hL       0.146910E-01   1.00800           0
     11655 MEMB     87       PA       C19      cD      -0.304720E-01   12.0100           0
     11656 MEMB     87       PA       H9R      hL       0.138970E-01   1.00800           0
     11657 MEMB     87       PA       H9S      hL       0.138970E-01   1.00800           0
     11658 MEMB     87       PA       C18      cD      -0.157930E-01   12.0100           0
     11659 MEMB     87       PA       H8R      hL       0.906700E-02   1.00800           0
     11660 MEMB     87       PA       H8S      hL       0.906700E-02   1.00800           0
     11661 MEMB     87       PA       C17      cD      -0.196300E-01   12.0100           0
     11662 MEMB     87       PA       H7R      hL       0.110410E-01   1.00800           0
     11663 MEMB     87       PA       H7S      hL       0.110410E-01   1.00800           0
     11664 MEMB     87       PA       C16      cD      -0.244270E-01   12.0100           0
     11665 MEMB     87       PA       H6R      hL       0.133340E-01   1.00800           0
     11666 MEMB     87       PA       H6S      hL       0.133340E-01   1.00800           0
     11667 MEMB     87       PA       C15      cD      -0.293870E-01   12.0100           0
     11668 MEMB     87       PA       H5R      hL       0.167630E-01   1.00800           0
     11669 MEMB     87       PA       H5S      hL       0.167630E-01   1.00800           0
     11670 MEMB     87       PA       C14      cD      -0.300990E-01   12.0100           0
     11671 MEMB     87       PA       H4R      hL       0.208770E-01   1.00800           0
     11672 MEMB     87       PA       H4S      hL       0.208770E-01   1.00800           0
     11673 MEMB     87       PA       C13      cD      -0.488200E-02   12.0100           0
     11674 MEMB     87       PA       H3R      hL       0.190070E-01   1.00800           0
     11675 MEMB     87       PA       H3S      hL       0.190070E-01   1.00800           0
     11676 MEMB     87       PA       C12      cD      -0.149259       12.0100           0
     11677 MEMB     87       PA       H2R      hL       0.473450E-01   1.00800           0
     11678 MEMB     87       PA       H2S      hL       0.473450E-01   1.00800           0
     11679 MEMB     87       PC       C11      cC       0.910403       12.0100           0
     11680 MEMB     87       PC       O12      oC      -0.671566       16.0000           0
     11681 MEMB     87       PC       O11      oS      -0.575489       16.0000           0
     11682 MEMB     87       PC       C1       cA       0.196939       12.0100           0
     11683 MEMB     87       PC       HR       hE       0.704690E-01   1.00800           0
     11684 MEMB     87       PC       HS       hE       0.704690E-01   1.00800           0
     11685 MEMB     87       PC       C2       cA       0.281242       12.0100           0
     11686 MEMB     87       PC       HX       hE       0.632530E-01   1.00800           0
     11687 MEMB     87       PC       C3       cA       0.174590E-01   12.0100           0
     11688 MEMB     87       PC       HA       hE       0.955910E-01   1.00800           0
     11689 MEMB     87       PC       HB       hE       0.955910E-01   1.00800           0
     11690 MEMB     87       PC       O31      oT      -0.509480       16.0000           0
     11691 MEMB     87       PC       P31      pA       1.339721       30.9700           0
     11692 MEMB     87       PC       O32      oT      -0.508176       16.0000           0
     11693 MEMB     87       PC       C31      cA       0.166801       12.0100           0
     11694 MEMB     87       PC       H1A      hE       0.785340E-01   1.00800           0
     11695 MEMB     87       PC       H1B      hE       0.785340E-01   1.00800           0
     11696 MEMB     87       PC       C32      cA      -0.170824       12.0100           0
     11697 MEMB     87       PC       H2A      hX       0.136415       1.00800           0
     11698 MEMB     87       PC       H2B      hX       0.136415       1.00800           0
     11699 MEMB     87       PC       N31      nA       0.245262       14.0100           0
     11700 MEMB     87       PC       C33      cA      -0.338973       12.0100           0
     11701 MEMB     87       PC       H3A      hX       0.172230       1.00800           0
     11702 MEMB     87       PC       H3B      hX       0.172230       1.00800           0
     11703 MEMB     87       PC       H3C      hX       0.172230       1.00800           0
     11704 MEMB     87       PC       C34      cA      -0.338973       12.0100           0
     11705 MEMB     87       PC       H4A      hX       0.172230       1.00800           0
     11706 MEMB     87       PC       H4B      hX       0.172230       1.00800           0
     11707 MEMB     87       PC       H4C      hX       0.172230       1.00800           0
     11708 MEMB     87       PC       C35      cA      -0.338973       12.0100           0
     11709 MEMB     87       PC       H5A      hX       0.172230       1.00800           0
     11710 MEMB     87       PC       H5B      hX       0.172230       1.00800           0
     11711 MEMB     87       PC       H5C      hX       0.172230       1.00800           0
     11712 MEMB     87       PC       O33      oP      -0.875812       16.0000           0
     11713 MEMB     87       PC       O34      oP      -0.875812       16.0000           0
     11714 MEMB     87       PC       O21      oS      -0.552948       16.0000           0
     11715 MEMB     87       PC       C21      cC       0.897613       12.0100           0
     11716 MEMB     87       PC       O22      oC      -0.673755       16.0000           0
     11717 MEMB     87       OL       C12      cD      -0.143418       12.0100           0
     11718 MEMB     87       OL       H2R      hL       0.428610E-01   1.00800           0
     11719 MEMB     87       OL       H2S      hL       0.428610E-01   1.00800           0
     11720 MEMB     87       OL       C13      cD       0.161900E-02   12.0100           0
     11721 MEMB     87       OL       H3R      hL       0.195290E-01   1.00800           0
     11722 MEMB     87       OL       H3S      hL       0.195290E-01   1.00800           0
     11723 MEMB     87       OL       C14      cD      -0.229600E-01   12.0100           0
     11724 MEMB     87       OL       H4R      hL       0.181340E-01   1.00800           0
     11725 MEMB     87       OL       H4S      hL       0.181340E-01   1.00800           0
     11726 MEMB     87       OL       C15      cD      -0.166920E-01   12.0100           0
     11727 MEMB     87       OL       H5R      hL       0.869000E-02   1.00800           0
     11728 MEMB     87       OL       H5S      hL       0.869000E-02   1.00800           0
     11729 MEMB     87       OL       C16      cD      -0.237890E-01   12.0100           0
     11730 MEMB     87       OL       H6R      hL       0.926600E-02   1.00800           0
     11731 MEMB     87       OL       H6S      hL       0.926600E-02   1.00800           0
     11732 MEMB     87       OL       C17      cD      -0.174950E-01   12.0100           0
     11733 MEMB     87       OL       H7R      hL       0.195980E-01   1.00800           0
     11734 MEMB     87       OL       H7S      hL       0.195980E-01   1.00800           0
     11735 MEMB     87       OL       C18      cD       0.317750E-01   12.0100           0
     11736 MEMB     87       OL       H8R      hL       0.326850E-01   1.00800           0
     11737 MEMB     87       OL       H8S      hL       0.326850E-01   1.00800           0
     11738 MEMB     87       OL       C19      cB      -0.244228       12.0100           0
     11739 MEMB     87       OL       H9R      hB       0.131512       1.00800           0
     11740 MEMB     87       OL       C110     cB      -0.239284       12.0100           0
     11741 MEMB     87       OL       H10R     hB       0.126878       1.00800           0
     11742 MEMB     87       OL       C111     cD       0.290590E-01   12.0100           0
     11743 MEMB     87       OL       H11R     hL       0.335310E-01   1.00800           0
     11744 MEMB     87       OL       H11S     hL       0.335310E-01   1.00800           0
     11745 MEMB     87       OL       C112     cD      -0.263530E-01   12.0100           0
     11746 MEMB     87       OL       H12R     hL       0.197170E-01   1.00800           0
     11747 MEMB     87       OL       H12S     hL       0.197170E-01   1.00800           0
     11748 MEMB     87       OL       C113     cD      -0.182570E-01   12.0100           0
     11749 MEMB     87       OL       H13R     hL       0.138000E-01   1.00800           0
     11750 MEMB     87       OL       H13S     hL       0.138000E-01   1.00800           0
     11751 MEMB     87       OL       C114     cD      -0.248490E-01   12.0100           0
     11752 MEMB     87       OL       H14R     hL       0.857200E-02   1.00800           0
     11753 MEMB     87       OL       H14S     hL       0.857200E-02   1.00800           0
     11754 MEMB     87       OL       C115     cD      -0.232470E-01   12.0100           0
     11755 MEMB     87       OL       H15R     hL       0.104030E-01   1.00800           0
     11756 MEMB     87       OL       H15S     hL       0.104030E-01   1.00800           0
     11757 MEMB     87       OL       C116     cD      -0.124880E-01   12.0100           0
     11758 MEMB     87       OL       H16R     hL       0.136590E-01   1.00800           0
     11759 MEMB     87       OL       H16S     hL       0.136590E-01   1.00800           0
     11760 MEMB     87       OL       C117     cD       0.868400E-02   12.0100           0
     11761 MEMB     87       OL       H17R     hL       0.100260E-01   1.00800           0
     11762 MEMB     87       OL       H17S     hL       0.100260E-01   1.00800           0
     11763 MEMB     87       OL       C118     cD      -0.117290       12.0100           0
     11764 MEMB     87       OL       H18R     hL       0.266270E-01   1.00800           0
     11765 MEMB     87       OL       H18S     hL       0.266270E-01   1.00800           0
     11766 MEMB     87       OL       H18T     hL       0.266270E-01   1.00800           0
     11767 MEMB     88       PA       C116     cD      -0.125447       12.0100           0
     11768 MEMB     88       PA       H16R     hL       0.290470E-01   1.00800           0
     11769 MEMB     88       PA       H16S     hL       0.290470E-01   1.00800           0
     11770 MEMB     88       PA       H16T     hL       0.290470E-01   1.00800           0
     11771 MEMB     88       PA       C115     cD       0.139750E-01   12.0100           0
     11772 MEMB     88       PA       H15R     hL       0.929200E-02   1.00800           0
     11773 MEMB     88       PA       H15S     hL       0.929200E-02   1.00800           0
     11774 MEMB     88       PA       C114     cD      -0.200860E-01   12.0100           0
     11775 MEMB     88       PA       H14R     hL       0.159290E-01   1.00800           0
     11776 MEMB     88       PA       H14S     hL       0.159290E-01   1.00800           0
     11777 MEMB     88       PA       C113     cD      -0.330960E-01   12.0100           0
     11778 MEMB     88       PA       H13R     hL       0.146210E-01   1.00800           0
     11779 MEMB     88       PA       H13S     hL       0.146210E-01   1.00800           0
     11780 MEMB     88       PA       C112     cD      -0.276330E-01   12.0100           0
     11781 MEMB     88       PA       H12R     hL       0.113680E-01   1.00800           0
     11782 MEMB     88       PA       H12S     hL       0.113680E-01   1.00800           0
     11783 MEMB     88       PA       C111     cD      -0.252060E-01   12.0100           0
     11784 MEMB     88       PA       H11R     hL       0.143340E-01   1.00800           0
     11785 MEMB     88       PA       H11S     hL       0.143340E-01   1.00800           0
     11786 MEMB     88       PA       C110     cD      -0.288310E-01   12.0100           0
     11787 MEMB     88       PA       H10R     hL       0.146910E-01   1.00800           0
     11788 MEMB     88       PA       H10S     hL       0.146910E-01   1.00800           0
     11789 MEMB     88       PA       C19      cD      -0.304720E-01   12.0100           0
     11790 MEMB     88       PA       H9R      hL       0.138970E-01   1.00800           0
     11791 MEMB     88       PA       H9S      hL       0.138970E-01   1.00800           0
     11792 MEMB     88       PA       C18      cD      -0.157930E-01   12.0100           0
     11793 MEMB     88       PA       H8R      hL       0.906700E-02   1.00800           0
     11794 MEMB     88       PA       H8S      hL       0.906700E-02   1.00800           0
     11795 MEMB     88       PA       C17      cD      -0.196300E-01   12.0100           0
     11796 MEMB     88       PA       H7R      hL       0.110410E-01   1.00800           0
     11797 MEMB     88       PA       H7S      hL       0.110410E-01   1.00800           0
     11798 MEMB     88       PA       C16      cD      -0.244270E-01   12.0100           0
     11799 MEMB     88       PA       H6R      hL       0.133340E-01   1.00800           0
     11800 MEMB     88       PA       H6S      hL       0.133340E-01   1.00800           0
     11801 MEMB     88       PA       C15      cD      -0.293870E-01   12.0100           0
     11802 MEMB     88       PA       H5R      hL       0.167630E-01   1.00800           0
     11803 MEMB     88       PA       H5S      hL       0.167630E-01   1.00800           0
     11804 MEMB     88       PA       C14      cD      -0.300990E-01   12.0100           0
     11805 MEMB     88       PA       H4R      hL       0.208770E-01   1.00800           0
     11806 MEMB     88       PA       H4S      hL       0.208770E-01   1.00800           0
     11807 MEMB     88       PA       C13      cD      -0.488200E-02   12.0100           0
     11808 MEMB     88       PA       H3R      hL       0.190070E-01   1.00800           0
     11809 MEMB     88       PA       H3S      hL       0.190070E-01   1.00800           0
     11810 MEMB     88       PA       C12      cD      -0.149259       12.0100           0
     11811 MEMB     88       PA       H2R      hL       0.473450E-01   1.00800           0
     11812 MEMB     88       PA       H2S      hL       0.473450E-01   1.00800           0
     11813 MEMB     88       PC       C11      cC       0.910403       12.0100           0
     11814 MEMB     88       PC       O12      oC      -0.671566       16.0000           0
     11815 MEMB     88       PC       O11      oS      -0.575489       16.0000           0
     11816 MEMB     88       PC       C1       cA       0.196939       12.0100           0
     11817 MEMB     88       PC       HR       hE       0.704690E-01   1.00800           0
     11818 MEMB     88       PC       HS       hE       0.704690E-01   1.00800           0
     11819 MEMB     88       PC       C2       cA       0.281242       12.0100           0
     11820 MEMB     88       PC       HX       hE       0.632530E-01   1.00800           0
     11821 MEMB     88       PC       C3       cA       0.174590E-01   12.0100           0
     11822 MEMB     88       PC       HA       hE       0.955910E-01   1.00800           0
     11823 MEMB     88       PC       HB       hE       0.955910E-01   1.00800           0
     11824 MEMB     88       PC       O31      oT      -0.509480       16.0000           0
     11825 MEMB     88       PC       P31      pA       1.339721       30.9700           0
     11826 MEMB     88       PC       O32      oT      -0.508176       16.0000           0
     11827 MEMB     88       PC       C31      cA       0.166801       12.0100           0
     11828 MEMB     88       PC       H1A      hE       0.785340E-01   1.00800           0
     11829 MEMB     88       PC       H1B      hE       0.785340E-01   1.00800           0
     11830 MEMB     88       PC       C32      cA      -0.170824       12.0100           0
     11831 MEMB     88       PC       H2A      hX       0.136415       1.00800           0
     11832 MEMB     88       PC       H2B      hX       0.136415       1.00800           0
     11833 MEMB     88       PC       N31      nA       0.245262       14.0100           0
     11834 MEMB     88       PC       C33      cA      -0.338973       12.0100           0
     11835 MEMB     88       PC       H3A      hX       0.172230       1.00800           0
     11836 MEMB     88       PC       H3B      hX       0.172230       1.00800           0
     11837 MEMB     88       PC       H3C      hX       0.172230       1.00800           0
     11838 MEMB     88       PC       C34      cA      -0.338973       12.0100           0
     11839 MEMB     88       PC       H4A      hX       0.172230       1.00800           0
     11840 MEMB     88       PC       H4B      hX       0.172230       1.00800           0
     11841 MEMB     88       PC       H4C      hX       0.172230       1.00800           0
     11842 MEMB     88       PC       C35      cA      -0.338973       12.0100           0
     11843 MEMB     88       PC       H5A      hX       0.172230       1.00800           0
     11844 MEMB     88       PC       H5B      hX       0.172230       1.00800           0
     11845 MEMB     88       PC       H5C      hX       0.172230       1.00800           0
     11846 MEMB     88       PC       O33      oP      -0.875812       16.0000           0
     11847 MEMB     88       PC       O34      oP      -0.875812       16.0000           0
     11848 MEMB     88       PC       O21      oS      -0.552948       16.0000           0
     11849 MEMB     88       PC       C21      cC       0.897613       12.0100           0
     11850 MEMB     88       PC       O22      oC      -0.673755       16.0000           0
     11851 MEMB     88       OL       C12      cD      -0.143418       12.0100           0
     11852 MEMB     88       OL       H2R      hL       0.428610E-01   1.00800           0
     11853 MEMB     88       OL       H2S      hL       0.428610E-01   1.00800           0
     11854 MEMB     88       OL       C13      cD       0.161900E-02   12.0100           0
     11855 MEMB     88       OL       H3R      hL       0.195290E-01   1.00800           0
     11856 MEMB     88       OL       H3S      hL       0.195290E-01   1.00800           0
     11857 MEMB     88       OL       C14      cD      -0.229600E-01   12.0100           0
     11858 MEMB     88       OL       H4R      hL       0.181340E-01   1.00800           0
     11859 MEMB     88       OL       H4S      hL       0.181340E-01   1.00800           0
     11860 MEMB     88       OL       C15      cD      -0.166920E-01   12.0100           0
     11861 MEMB     88       OL       H5R      hL       0.869000E-02   1.00800           0
     11862 MEMB     88       OL       H5S      hL       0.869000E-02   1.00800           0
     11863 MEMB     88       OL       C16      cD      -0.237890E-01   12.0100           0
     11864 MEMB     88       OL       H6R      hL       0.926600E-02   1.00800           0
     11865 MEMB     88       OL       H6S      hL       0.926600E-02   1.00800           0
     11866 MEMB     88       OL       C17      cD      -0.174950E-01   12.0100           0
     11867 MEMB     88       OL       H7R      hL       0.195980E-01   1.00800           0
     11868 MEMB     88       OL       H7S      hL       0.195980E-01   1.00800           0
     11869 MEMB     88       OL       C18      cD       0.317750E-01   12.0100           0
     11870 MEMB     88       OL       H8R      hL       0.326850E-01   1.00800           0
     11871 MEMB     88       OL       H8S      hL       0.326850E-01   1.00800           0
     11872 MEMB     88       OL       C19      cB      -0.244228       12.0100           0
     11873 MEMB     88       OL       H9R      hB       0.131512       1.00800           0
     11874 MEMB     88       OL       C110     cB      -0.239284       12.0100           0
     11875 MEMB     88       OL       H10R     hB       0.126878       1.00800           0
     11876 MEMB     88       OL       C111     cD       0.290590E-01   12.0100           0
     11877 MEMB     88       OL       H11R     hL       0.335310E-01   1.00800           0
     11878 MEMB     88       OL       H11S     hL       0.335310E-01   1.00800           0
     11879 MEMB     88       OL       C112     cD      -0.263530E-01   12.0100           0
     11880 MEMB     88       OL       H12R     hL       0.197170E-01   1.00800           0
     11881 MEMB     88       OL       H12S     hL       0.197170E-01   1.00800           0
     11882 MEMB     88       OL       C113     cD      -0.182570E-01   12.0100           0
     11883 MEMB     88       OL       H13R     hL       0.138000E-01   1.00800           0
     11884 MEMB     88       OL       H13S     hL       0.138000E-01   1.00800           0
     11885 MEMB     88       OL       C114     cD      -0.248490E-01   12.0100           0
     11886 MEMB     88       OL       H14R     hL       0.857200E-02   1.00800           0
     11887 MEMB     88       OL       H14S     hL       0.857200E-02   1.00800           0
     11888 MEMB     88       OL       C115     cD      -0.232470E-01   12.0100           0
     11889 MEMB     88       OL       H15R     hL       0.104030E-01   1.00800           0
     11890 MEMB     88       OL       H15S     hL       0.104030E-01   1.00800           0
     11891 MEMB     88       OL       C116     cD      -0.124880E-01   12.0100           0
     11892 MEMB     88       OL       H16R     hL       0.136590E-01   1.00800           0
     11893 MEMB     88       OL       H16S     hL       0.136590E-01   1.00800           0
     11894 MEMB     88       OL       C117     cD       0.868400E-02   12.0100           0
     11895 MEMB     88       OL       H17R     hL       0.100260E-01   1.00800           0
     11896 MEMB     88       OL       H17S     hL       0.100260E-01   1.00800           0
     11897 MEMB     88       OL       C118     cD      -0.117290       12.0100           0
     11898 MEMB     88       OL       H18R     hL       0.266270E-01   1.00800           0
     11899 MEMB     88       OL       H18S     hL       0.266270E-01   1.00800           0
     11900 MEMB     88       OL       H18T     hL       0.266270E-01   1.00800           0
     11901 IONS     1        Na+      Na+      Na+      1.000000       22.9900           0
     11902 IONS     2        Na+      Na+      Na+      1.000000       22.9900           0
     11903 IONS     3        Na+      Na+      Na+      1.000000       22.9900           0
     11904 IONS     4        Na+      Na+      Na+      1.000000       22.9900           0
     11905 IONS     5        Na+      Na+      Na+      1.000000       22.9900           0
     11906 IONS     6        Na+      Na+      Na+      1.000000       22.9900           0
     11907 IONS     7        Na+      Na+      Na+      1.000000       22.9900           0
     11908 IONS     8        Na+      Na+      Na+      1.000000       22.9900           0
     11909 IONS     9        Na+      Na+      Na+      1.000000       22.9900           0
     11910 IONS     10       Na+      Na+      Na+      1.000000       22.9900           0
     11911 IONS     11       Na+      Na+      Na+      1.000000       22.9900           0
     11912 IONS     12       Na+      Na+      Na+      1.000000       22.9900           0
     11913 IONS     13       Na+      Na+      Na+      1.000000       22.9900           0
     11914 IONS     14       Na+      Na+      Na+      1.000000       22.9900           0
     11915 IONS     15       Cl-      Cl-      Cl-     -1.000000       35.4500           0
     11916 IONS     16       Cl-      Cl-      Cl-     -1.000000       35.4500           0
     11917 IONS     17       Cl-      Cl-      Cl-     -1.000000       35.4500           0
     11918 IONS     18       Cl-      Cl-      Cl-     -1.000000       35.4500           0
     11919 IONS     19       Cl-      Cl-      Cl-     -1.000000       35.4500           0
     11920 IONS     20       Cl-      Cl-      Cl-     -1.000000       35.4500           0
     11921 IONS     21       Cl-      Cl-      Cl-     -1.000000       35.4500           0
     11922 IONS     22       Cl-      Cl-      Cl-     -1.000000       35.4500           0
     11923 IONS     23       Cl-      Cl-      Cl-     -1.000000       35.4500           0
     11924 IONS     24       Cl-      Cl-      Cl-     -1.000000       35.4500           0
     11925 IONS     25       Cl-      Cl-      Cl-     -1.000000       35.4500           0
     11926 IONS     26       Cl-      Cl-      Cl-     -1.000000       35.4500           0
     11927 IONS     27       Cl-      Cl-      Cl-     -1.000000       35.4500           0
     11928 IONS     28       Cl-      Cl-      Cl-     -1.000000       35.4500           0
     11929 IONS     29       Cl-      Cl-      Cl-     -1.000000       35.4500           0
     11930 IONS     30       Cl-      Cl-      Cl-     -1.000000       35.4500           0
     11931 IONS     31       Cl-      Cl-      Cl-     -1.000000       35.4500           0
     11932 TIP3     1        TP3      O        OW      -0.834000       16.0000           0
     11933 TIP3     1        TP3      H1       HW       0.417000       1.00800           0
     11934 TIP3     1        TP3      H2       HW       0.417000       1.00800           0
     11935 TIP3     2        TP3      O        OW      -0.834000       16.0000           0
     11936 TIP3     2        TP3      H1       HW       0.417000       1.00800           0
     11937 TIP3     2        TP3      H2       HW       0.417000       1.00800           0
     11938 TIP3     3        TP3      O        OW      -0.834000       16.0000           0
     11939 TIP3     3        TP3      H1       HW       0.417000       1.00800           0
     11940 TIP3     3        TP3      H2       HW       0.417000       1.00800           0
     11941 TIP3     4        TP3      O        OW      -0.834000       16.0000           0
     11942 TIP3     4        TP3      H1       HW       0.417000       1.00800           0
     11943 TIP3     4        TP3      H2       HW       0.417000       1.00800           0
     11944 TIP3     5        TP3      O        OW      -0.834000       16.0000           0
     11945 TIP3     5        TP3      H1       HW       0.417000       1.00800           0
     11946 TIP3     5        TP3      H2       HW       0.417000       1.00800           0
     11947 TIP3     6        TP3      O        OW      -0.834000       16.0000           0
     11948 TIP3     6        TP3      H1       HW       0.417000       1.00800           0
     11949 TIP3     6        TP3      H2       HW       0.417000       1.00800           0
     11950 TIP3     7        TP3      O        OW      -0.834000       16.0000           0
     11951 TIP3     7        TP3      H1       HW       0.417000       1.00800           0
     11952 TIP3     7        TP3      H2       HW       0.417000       1.00800           0
     11953 TIP3     8        TP3      O        OW      -0.834000       16.0000           0
     11954 TIP3     8        TP3      H1       HW       0.417000       1.00800           0
     11955 TIP3     8        TP3      H2       HW       0.417000       1.00800           0
     11956 TIP3     9        TP3      O        OW      -0.834000       16.0000           0
     11957 TIP3     9        TP3      H1       HW       0.417000       1.00800           0
     11958 TIP3     9        TP3      H2       HW       0.417000       1.00800           0
     11959 TIP3     10       TP3      O        OW      -0.834000       16.0000           0
     11960 TIP3     10       TP3      H1       HW       0.417000       1.00800           0
     11961 TIP3     10       TP3      H2       HW       0.417000       1.00800           0
     11962 TIP3     11       TP3      O        OW      -0.834000       16.0000           0
     11963 TIP3     11       TP3      H1       HW       0.417000       1.00800           0
     11964 TIP3     11       TP3      H2       HW       0.417000       1.00800           0
     11965 TIP3     12       TP3      O        OW      -0.834000       16.0000           0
     11966 TIP3     12       TP3      H1       HW       0.417000       1.00800           0
     11967 TIP3     12       TP3      H2       HW       0.417000       1.00800           0
     11968 TIP3     13       TP3      O        OW      -0.834000       16.0000           0
     11969 TIP3     13       TP3      H1       HW       0.417000       1.00800           0
     11970 TIP3     13       TP3      H2       HW       0.417000       1.00800           0
     11971 TIP3     14       TP3      O        OW      -0.834000       16.0000           0
     11972 TIP3     14       TP3      H1       HW       0.417000       1.00800           0
     11973 TIP3     14       TP3      H2       HW       0.417000       1.00800           0
     11974 TIP3     15       TP3      O        OW      -0.834000       16.0000           0
     11975 TIP3     15       TP3      H1       HW       0.417000       1.00800           0
     11976 TIP3     15       TP3      H2       HW       0.417000       1.00800           0
     11977 TIP3     16       TP3      O        OW      -0.834000       16.0000           0
     11978 TIP3     16       TP3      H1       HW       0.417000       1.00800           0
     11979 TIP3     16       TP3      H2       HW       0.417000       1.00800           0
     11980 TIP3     17       TP3      O        OW      -0.834000       16.0000           0
     11981 TIP3     17       TP3      H1       HW       0.417000       1.00800           0
     11982 TIP3     17       TP3      H2       HW       0.417000       1.00800           0
     11983 TIP3     18       TP3      O        OW      -0.834000       16.0000           0
     11984 TIP3     18       TP3      H1       HW       0.417000       1.00800           0
     11985 TIP3     18       TP3      H2       HW       0.417000       1.00800           0
     11986 TIP3     19       TP3      O        OW      -0.834000       16.0000           0
     11987 TIP3     19       TP3      H1       HW       0.417000       1.00800           0
     11988 TIP3     19       TP3      H2       HW       0.417000       1.00800           0
     11989 TIP3     20       TP3      O        OW      -0.834000       16.0000           0
     11990 TIP3     20       TP3      H1       HW       0.417000       1.00800           0
     11991 TIP3     20       TP3      H2       HW       0.417000       1.00800           0
     11992 TIP3     21       TP3      O        OW      -0.834000       16.0000           0
     11993 TIP3     21       TP3      H1       HW       0.417000       1.00800           0
     11994 TIP3     21       TP3      H2       HW       0.417000       1.00800           0
     11995 TIP3     22       TP3      O        OW      -0.834000       16.0000           0
     11996 TIP3     22       TP3      H1       HW       0.417000       1.00800           0
     11997 TIP3     22       TP3      H2       HW       0.417000       1.00800           0
     11998 TIP3     23       TP3      O        OW      -0.834000       16.0000           0
     11999 TIP3     23       TP3      H1       HW       0.417000       1.00800           0
     12000 TIP3     23       TP3      H2       HW       0.417000       1.00800           0
     12001 TIP3     24       TP3      O        OW      -0.834000       16.0000           0
     12002 TIP3     24       TP3      H1       HW       0.417000       1.00800           0
     12003 TIP3     24       TP3      H2       HW       0.417000       1.00800           0
     12004 TIP3     25       TP3      O        OW      -0.834000       16.0000           0
     12005 TIP3     25       TP3      H1       HW       0.417000       1.00800           0
     12006 TIP3     25       TP3      H2       HW       0.417000       1.00800           0
     12007 TIP3     26       TP3      O        OW      -0.834000       16.0000           0
     12008 TIP3     26       TP3      H1       HW       0.417000       1.00800           0
     12009 TIP3     26       TP3      H2       HW       0.417000       1.00800           0
     12010 TIP3     27       TP3      O        OW      -0.834000       16.0000           0
     12011 TIP3     27       TP3      H1       HW       0.417000       1.00800           0
     12012 TIP3     27       TP3      H2       HW       0.417000       1.00800           0
     12013 TIP3     28       TP3      O        OW      -0.834000       16.0000           0
     12014 TIP3     28       TP3      H1       HW       0.417000       1.00800           0
     12015 TIP3     28       TP3      H2       HW       0.417000       1.00800           0
     12016 TIP3     29       TP3      O        OW      -0.834000       16.0000           0
     12017 TIP3     29       TP3      H1       HW       0.417000       1.00800           0
     12018 TIP3     29       TP3      H2       HW       0.417000       1.00800           0
     12019 TIP3     30       TP3      O        OW      -0.834000       16.0000           0
     12020 TIP3     30       TP3      H1       HW       0.417000       1.00800           0
     12021 TIP3     30       TP3      H2       HW       0.417000       1.00800           0
     12022 TIP3     31       TP3      O        OW      -0.834000       16.0000           0
     12023 TIP3     31       TP3      H1       HW       0.417000       1.00800           0
     12024 TIP3     31       TP3      H2       HW       0.417000       1.00800           0
     12025 TIP3     32       TP3      O        OW      -0.834000       16.0000           0
     12026 TIP3     32       TP3      H1       HW       0.417000       1.00800           0
     12027 TIP3     32       TP3      H2       HW       0.417000       1.00800           0
     12028 TIP3     33       TP3      O        OW      -0.834000       16.0000           0
     12029 TIP3     33       TP3      H1       HW       0.417000       1.00800           0
     12030 TIP3     33       TP3      H2       HW       0.417000       1.00800           0
     12031 TIP3     34       TP3      O        OW      -0.834000       16.0000           0
     12032 TIP3     34       TP3      H1       HW       0.417000       1.00800           0
     12033 TIP3     34       TP3      H2       HW       0.417000       1.00800           0
     12034 TIP3     35       TP3      O        OW      -0.834000       16.0000           0
     12035 TIP3     35       TP3      H1       HW       0.417000       1.00800           0
     12036 TIP3     35       TP3      H2       HW       0.417000       1.00800           0
     12037 TIP3     36       TP3      O        OW      -0.834000       16.0000           0
     12038 TIP3     36       TP3      H1       HW       0.417000       1.00800           0
     12039 TIP3     36       TP3      H2       HW       0.417000       1.00800           0
     12040 TIP3     37       TP3      O        OW      -0.834000       16.0000           0
     12041 TIP3     37       TP3      H1       HW       0.417000       1.00800           0
     12042 TIP3     37       TP3      H2       HW       0.417000       1.00800           0
     12043 TIP3     38       TP3      O        OW      -0.834000       16.0000           0
     12044 TIP3     38       TP3      H1       HW       0.417000       1.00800           0
     12045 TIP3     38       TP3      H2       HW       0.417000       1.00800           0
     12046 TIP3     39       TP3      O        OW      -0.834000       16.0000           0
     12047 TIP3     39       TP3      H1       HW       0.417000       1.00800           0
     12048 TIP3     39       TP3      H2       HW       0.417000       1.00800           0
     12049 TIP3     40       TP3      O        OW      -0.834000       16.0000           0
     12050 TIP3     40       TP3      H1       HW       0.417000       1.00800           0
     12051 TIP3     40       TP3      H2       HW       0.417000       1.00800           0
     12052 TIP3     41       TP3      O        OW      -0.834000       16.0000           0
     12053 TIP3     41       TP3      H1       HW       0.417000       1.00800           0
     12054 TIP3     41       TP3      H2       HW       0.417000       1.00800           0
     12055 TIP3     42       TP3      O        OW      -0.834000       16.0000           0
     12056 TIP3     42       TP3      H1       HW       0.417000       1.00800           0
     12057 TIP3     42       TP3      H2       HW       0.417000       1.00800           0
     12058 TIP3     43       TP3      O        OW      -0.834000       16.0000           0
     12059 TIP3     43       TP3      H1       HW       0.417000       1.00800           0
     12060 TIP3     43       TP3      H2       HW       0.417000       1.00800           0
     12061 TIP3     44       TP3      O        OW      -0.834000       16.0000           0
     12062 TIP3     44       TP3      H1       HW       0.417000       1.00800           0
     12063 TIP3     44       TP3      H2       HW       0.417000       1.00800           0
     12064 TIP3     45       TP3      O        OW      -0.834000       16.0000           0
     12065 TIP3     45       TP3      H1       HW       0.417000       1.00800           0
     12066 TIP3     45       TP3      H2       HW       0.417000       1.00800           0
     12067 TIP3     46       TP3      O        OW      -0.834000       16.0000           0
     12068 TIP3     46       TP3      H1       HW       0.417000       1.00800           0
     12069 TIP3     46       TP3      H2       HW       0.417000       1.00800           0
     12070 TIP3     47       TP3      O        OW      -0.834000       16.0000           0
     12071 TIP3     47       TP3      H1       HW       0.417000       1.00800           0
     12072 TIP3     47       TP3      H2       HW       0.417000       1.00800           0
     12073 TIP3     48       TP3      O        OW      -0.834000       16.0000           0
     12074 TIP3     48       TP3      H1       HW       0.417000       1.00800           0
     12075 TIP3     48       TP3      H2       HW       0.417000       1.00800           0
     12076 TIP3     49       TP3      O        OW      -0.834000       16.0000           0
     12077 TIP3     49       TP3      H1       HW       0.417000       1.00800           0
     12078 TIP3     49       TP3      H2       HW       0.417000       1.00800           0
     12079 TIP3     50       TP3      O        OW      -0.834000       16.0000           0
     12080 TIP3     50       TP3      H1       HW       0.417000       1.00800           0
     12081 TIP3     50       TP3      H2       HW       0.417000       1.00800           0
     12082 TIP3     51       TP3      O        OW      -0.834000       16.0000           0
     12083 TIP3     51       TP3      H1       HW       0.417000       1.00800           0
     12084 TIP3     51       TP3      H2       HW       0.417000       1.00800           0
     12085 TIP3     52       TP3      O        OW      -0.834000       16.0000           0
     12086 TIP3     52       TP3      H1       HW       0.417000       1.00800           0
     12087 TIP3     52       TP3      H2       HW       0.417000       1.00800           0
     12088 TIP3     53       TP3      O        OW      -0.834000       16.0000           0
     12089 TIP3     53       TP3      H1       HW       0.417000       1.00800           0
     12090 TIP3     53       TP3      H2       HW       0.417000       1.00800           0
     12091 TIP3     54       TP3      O        OW      -0.834000       16.0000           0
     12092 TIP3     54       TP3      H1       HW       0.417000       1.00800           0
     12093 TIP3     54       TP3      H2       HW       0.417000       1.00800           0
     12094 TIP3     55       TP3      O        OW      -0.834000       16.0000           0
     12095 TIP3     55       TP3      H1       HW       0.417000       1.00800           0
     12096 TIP3     55       TP3      H2       HW       0.417000       1.00800           0
     12097 TIP3     56       TP3      O        OW      -0.834000       16.0000           0
     12098 TIP3     56       TP3      H1       HW       0.417000       1.00800           0
     12099 TIP3     56       TP3      H2       HW       0.417000       1.00800           0
     12100 TIP3     57       TP3      O        OW      -0.834000       16.0000           0
     12101 TIP3     57       TP3      H1       HW       0.417000       1.00800           0
     12102 TIP3     57       TP3      H2       HW       0.417000       1.00800           0
     12103 TIP3     58       TP3      O        OW      -0.834000       16.0000           0
     12104 TIP3     58       TP3      H1       HW       0.417000       1.00800           0
     12105 TIP3     58       TP3      H2       HW       0.417000       1.00800           0
     12106 TIP3     59       TP3      O        OW      -0.834000       16.0000           0
     12107 TIP3     59       TP3      H1       HW       0.417000       1.00800           0
     12108 TIP3     59       TP3      H2       HW       0.417000       1.00800           0
     12109 TIP3     60       TP3      O        OW      -0.834000       16.0000           0
     12110 TIP3     60       TP3      H1       HW       0.417000       1.00800           0
     12111 TIP3     60       TP3      H2       HW       0.417000       1.00800           0
     12112 TIP3     61       TP3      O        OW      -0.834000       16.0000           0
     12113 TIP3     61       TP3      H1       HW       0.417000       1.00800           0
     12114 TIP3     61       TP3      H2       HW       0.417000       1.00800           0
     12115 TIP3     62       TP3      O        OW      -0.834000       16.0000           0
     12116 TIP3     62       TP3      H1       HW       0.417000       1.00800           0
     12117 TIP3     62       TP3      H2       HW       0.417000       1.00800           0
     12118 TIP3     63       TP3      O        OW      -0.834000       16.0000           0
     12119 TIP3     63       TP3      H1       HW       0.417000       1.00800           0
     12120 TIP3     63       TP3      H2       HW       0.417000       1.00800           0
     12121 TIP3     64       TP3      O        OW      -0.834000       16.0000           0
     12122 TIP3     64       TP3      H1       HW       0.417000       1.00800           0
     12123 TIP3     64       TP3      H2       HW       0.417000       1.00800           0
     12124 TIP3     65       TP3      O        OW      -0.834000       16.0000           0
     12125 TIP3     65       TP3      H1       HW       0.417000       1.00800           0
     12126 TIP3     65       TP3      H2       HW       0.417000       1.00800           0
     12127 TIP3     66       TP3      O        OW      -0.834000       16.0000           0
     12128 TIP3     66       TP3      H1       HW       0.417000       1.00800           0
     12129 TIP3     66       TP3      H2       HW       0.417000       1.00800           0
     12130 TIP3     67       TP3      O        OW      -0.834000       16.0000           0
     12131 TIP3     67       TP3      H1       HW       0.417000       1.00800           0
     12132 TIP3     67       TP3      H2       HW       0.417000       1.00800           0
     12133 TIP3     68       TP3      O        OW      -0.834000       16.0000           0
     12134 TIP3     68       TP3      H1       HW       0.417000       1.00800           0
     12135 TIP3     68       TP3      H2       HW       0.417000       1.00800           0
     12136 TIP3     69       TP3      O        OW      -0.834000       16.0000           0
     12137 TIP3     69       TP3      H1       HW       0.417000       1.00800           0
     12138 TIP3     69       TP3      H2       HW       0.417000       1.00800           0
     12139 TIP3     70       TP3      O        OW      -0.834000       16.0000           0
     12140 TIP3     70       TP3      H1       HW       0.417000       1.00800           0
     12141 TIP3     70       TP3      H2       HW       0.417000       1.00800           0
     12142 TIP3     71       TP3      O        OW      -0.834000       16.0000           0
     12143 TIP3     71       TP3      H1       HW       0.417000       1.00800           0
     12144 TIP3     71       TP3      H2       HW       0.417000       1.00800           0
     12145 TIP3     72       TP3      O        OW      -0.834000       16.0000           0
     12146 TIP3     72       TP3      H1       HW       0.417000       1.00800           0
     12147 TIP3     72       TP3      H2       HW       0.417000       1.00800           0
     12148 TIP3     73       TP3      O        OW      -0.834000       16.0000           0
     12149 TIP3     73       TP3      H1       HW       0.417000       1.00800           0
     12150 TIP3     73       TP3      H2       HW       0.417000       1.00800           0
     12151 TIP3     74       TP3      O        OW      -0.834000       16.0000           0
     12152 TIP3     74       TP3      H1       HW       0.417000       1.00800           0
     12153 TIP3     74       TP3      H2       HW       0.417000       1.00800           0
     12154 TIP3     75       TP3      O        OW      -0.834000       16.0000           0
     12155 TIP3     75       TP3      H1       HW       0.417000       1.00800           0
     12156 TIP3     75       TP3      H2       HW       0.417000       1.00800           0
     12157 TIP3     76       TP3      O        OW      -0.834000       16.0000           0
     12158 TIP3     76       TP3      H1       HW       0.417000       1.00800           0
     12159 TIP3     76       TP3      H2       HW       0.417000       1.00800           0
     12160 TIP3     77       TP3      O        OW      -0.834000       16.0000           0
     12161 TIP3     77       TP3      H1       HW       0.417000       1.00800           0
     12162 TIP3     77       TP3      H2       HW       0.417000       1.00800           0
     12163 TIP3     78       TP3      O        OW      -0.834000       16.0000           0
     12164 TIP3     78       TP3      H1       HW       0.417000       1.00800           0
     12165 TIP3     78       TP3      H2       HW       0.417000       1.00800           0
     12166 TIP3     79       TP3      O        OW      -0.834000       16.0000           0
     12167 TIP3     79       TP3      H1       HW       0.417000       1.00800           0
     12168 TIP3     79       TP3      H2       HW       0.417000       1.00800           0
     12169 TIP3     80       TP3      O        OW      -0.834000       16.0000           0
     12170 TIP3     80       TP3      H1       HW       0.417000       1.00800           0
     12171 TIP3     80       TP3      H2       HW       0.417000       1.00800           0
     12172 TIP3     81       TP3      O        OW      -0.834000       16.0000           0
     12173 TIP3     81       TP3      H1       HW       0.417000       1.00800           0
     12174 TIP3     81       TP3      H2       HW       0.417000       1.00800           0
     12175 TIP3     82       TP3      O        OW      -0.834000       16.0000           0
     12176 TIP3     82       TP3      H1       HW       0.417000       1.00800           0
     12177 TIP3     82       TP3      H2       HW       0.417000       1.00800           0
     12178 TIP3     83       TP3      O        OW      -0.834000       16.0000           0
     12179 TIP3     83       TP3      H1       HW       0.417000       1.00800           0
     12180 TIP3     83       TP3      H2       HW       0.417000       1.00800           0
     12181 TIP3     84       TP3      O        OW      -0.834000       16.0000           0
     12182 TIP3     84       TP3      H1       HW       0.417000       1.00800           0
     12183 TIP3     84       TP3      H2       HW       0.417000       1.00800           0
     12184 TIP3     85       TP3      O        OW      -0.834000       16.0000           0
     12185 TIP3     85       TP3      H1       HW       0.417000       1.00800           0
     12186 TIP3     85       TP3      H2       HW       0.417000       1.00800           0
     12187 TIP3     86       TP3      O        OW      -0.834000       16.0000           0
     12188 TIP3     86       TP3      H1       HW       0.417000       1.00800           0
     12189 TIP3     86       TP3      H2       HW       0.417000       1.00800           0
     12190 TIP3     87       TP3      O        OW      -0.834000       16.0000           0
     12191 TIP3     87       TP3      H1       HW       0.417000       1.00800           0
     12192 TIP3     87       TP3      H2       HW       0.417000       1.00800           0
     12193 TIP3     88       TP3      O        OW      -0.834000       16.0000           0
     12194 TIP3     88       TP3      H1       HW       0.417000       1.00800           0
     12195 TIP3     88       TP3      H2       HW       0.417000       1.00800           0
     12196 TIP3     89       TP3      O        OW      -0.834000       16.0000           0
     12197 TIP3     89       TP3      H1       HW       0.417000       1.00800           0
     12198 TIP3     89       TP3      H2       HW       0.417000       1.00800           0
     12199 TIP3     90       TP3      O        OW      -0.834000       16.0000           0
     12200 TIP3     90       TP3      H1       HW       0.417000       1.00800           0
     12201 TIP3     90       TP3      H2       HW       0.417000       1.00800           0
     12202 TIP3     91       TP3      O        OW      -0.834000       16.0000           0
     12203 TIP3     91       TP3      H1       HW       0.417000       1.00800           0
     12204 TIP3     91       TP3      H2       HW       0.417000       1.00800           0
     12205 TIP3     92       TP3      O        OW      -0.834000       16.0000           0
     12206 TIP3     92       TP3      H1       HW       0.417000       1.00800           0
     12207 TIP3     92       TP3      H2       HW       0.417000       1.00800           0
     12208 TIP3     93       TP3      O        OW      -0.834000       16.0000           0
     12209 TIP3     93       TP3      H1       HW       0.417000       1.00800           0
     12210 TIP3     93       TP3      H2       HW       0.417000       1.00800           0
     12211 TIP3     94       TP3      O        OW      -0.834000       16.0000           0
     12212 TIP3     94       TP3      H1       HW       0.417000       1.00800           0
     12213 TIP3     94       TP3      H2       HW       0.417000       1.00800           0
     12214 TIP3     95       TP3      O        OW      -0.834000       16.0000           0
     12215 TIP3     95       TP3      H1       HW       0.417000       1.00800           0
     12216 TIP3     95       TP3      H2       HW       0.417000       1.00800           0
     12217 TIP3     96       TP3      O        OW      -0.834000       16.0000           0
     12218 TIP3     96       TP3      H1       HW       0.417000       1.00800           0
     12219 TIP3     96       TP3      H2       HW       0.417000       1.00800           0
     12220 TIP3     97       TP3      O        OW      -0.834000       16.0000           0
     12221 TIP3     97       TP3      H1       HW       0.417000       1.00800           0
     12222 TIP3     97       TP3      H2       HW       0.417000       1.00800           0
     12223 TIP3     98       TP3      O        OW      -0.834000       16.0000           0
     12224 TIP3     98       TP3      H1       HW       0.417000       1.00800           0
     12225 TIP3     98       TP3      H2       HW       0.417000       1.00800           0
     12226 TIP3     99       TP3      O        OW      -0.834000       16.0000           0
     12227 TIP3     99       TP3      H1       HW       0.417000       1.00800           0
     12228 TIP3     99       TP3      H2       HW       0.417000       1.00800           0
     12229 TIP3     100      TP3      O        OW      -0.834000       16.0000           0
     12230 TIP3     100      TP3      H1       HW       0.417000       1.00800           0
     12231 TIP3     100      TP3      H2       HW       0.417000       1.00800           0
     12232 TIP3     101      TP3      O        OW      -0.834000       16.0000           0
     12233 TIP3     101      TP3      H1       HW       0.417000       1.00800           0
     12234 TIP3     101      TP3      H2       HW       0.417000       1.00800           0
     12235 TIP3     102      TP3      O        OW      -0.834000       16.0000           0
     12236 TIP3     102      TP3      H1       HW       0.417000       1.00800           0
     12237 TIP3     102      TP3      H2       HW       0.417000       1.00800           0
     12238 TIP3     103      TP3      O        OW      -0.834000       16.0000           0
     12239 TIP3     103      TP3      H1       HW       0.417000       1.00800           0
     12240 TIP3     103      TP3      H2       HW       0.417000       1.00800           0
     12241 TIP3     104      TP3      O        OW      -0.834000       16.0000           0
     12242 TIP3     104      TP3      H1       HW       0.417000       1.00800           0
     12243 TIP3     104      TP3      H2       HW       0.417000       1.00800           0
     12244 TIP3     105      TP3      O        OW      -0.834000       16.0000           0
     12245 TIP3     105      TP3      H1       HW       0.417000       1.00800           0
     12246 TIP3     105      TP3      H2       HW       0.417000       1.00800           0
     12247 TIP3     106      TP3      O        OW      -0.834000       16.0000           0
     12248 TIP3     106      TP3      H1       HW       0.417000       1.00800           0
     12249 TIP3     106      TP3      H2       HW       0.417000       1.00800           0
     12250 TIP3     107      TP3      O        OW      -0.834000       16.0000           0
     12251 TIP3     107      TP3      H1       HW       0.417000       1.00800           0
     12252 TIP3     107      TP3      H2       HW       0.417000       1.00800           0
     12253 TIP3     108      TP3      O        OW      -0.834000       16.0000           0
     12254 TIP3     108      TP3      H1       HW       0.417000       1.00800           0
     12255 TIP3     108      TP3      H2       HW       0.417000       1.00800           0
     12256 TIP3     109      TP3      O        OW      -0.834000       16.0000           0
     12257 TIP3     109      TP3      H1       HW       0.417000       1.00800           0
     12258 TIP3     109      TP3      H2       HW       0.417000       1.00800           0
     12259 TIP3     110      TP3      O        OW      -0.834000       16.0000           0
     12260 TIP3     110      TP3      H1       HW       0.417000       1.00800           0
     12261 TIP3     110      TP3      H2       HW       0.417000       1.00800           0
     12262 TIP3     111      TP3      O        OW      -0.834000       16.0000           0
     12263 TIP3     111      TP3      H1       HW       0.417000       1.00800           0
     12264 TIP3     111      TP3      H2       HW       0.417000       1.00800           0
     12265 TIP3     112      TP3      O        OW      -0.834000       16.0000           0
     12266 TIP3     112      TP3      H1       HW       0.417000       1.00800           0
     12267 TIP3     112      TP3      H2       HW       0.417000       1.00800           0
     12268 TIP3     113      TP3      O        OW      -0.834000       16.0000           0
     12269 TIP3     113      TP3      H1       HW       0.417000       1.00800           0
     12270 TIP3     113      TP3      H2       HW       0.417000       1.00800           0
     12271 TIP3     114      TP3      O        OW      -0.834000       16.0000           0
     12272 TIP3     114      TP3      H1       HW       0.417000       1.00800           0
     12273 TIP3     114      TP3      H2       HW       0.417000       1.00800           0
     12274 TIP3     115      TP3      O        OW      -0.834000       16.0000           0
     12275 TIP3     115      TP3      H1       HW       0.417000       1.00800           0
     12276 TIP3     115      TP3      H2       HW       0.417000       1.00800           0
     12277 TIP3     116      TP3      O        OW      -0.834000       16.0000           0
     12278 TIP3     116      TP3      H1       HW       0.417000       1.00800           0
     12279 TIP3     116      TP3      H2       HW       0.417000       1.00800           0
     12280 TIP3     117      TP3      O        OW      -0.834000       16.0000           0
     12281 TIP3     117      TP3      H1       HW       0.417000       1.00800           0
     12282 TIP3     117      TP3      H2       HW       0.417000       1.00800           0
     12283 TIP3     118      TP3      O        OW      -0.834000       16.0000           0
     12284 TIP3     118      TP3      H1       HW       0.417000       1.00800           0
     12285 TIP3     118      TP3      H2       HW       0.417000       1.00800           0
     12286 TIP3     119      TP3      O        OW      -0.834000       16.0000           0
     12287 TIP3     119      TP3      H1       HW       0.417000       1.00800           0
     12288 TIP3     119      TP3      H2       HW       0.417000       1.00800           0
     12289 TIP3     120      TP3      O        OW      -0.834000       16.0000           0
     12290 TIP3     120      TP3      H1       HW       0.417000       1.00800           0
     12291 TIP3     120      TP3      H2       HW       0.417000       1.00800           0
     12292 TIP3     121      TP3      O        OW      -0.834000       16.0000           0
     12293 TIP3     121      TP3      H1       HW       0.417000       1.00800           0
     12294 TIP3     121      TP3      H2       HW       0.417000       1.00800           0
     12295 TIP3     122      TP3      O        OW      -0.834000       16.0000           0
     12296 TIP3     122      TP3      H1       HW       0.417000       1.00800           0
     12297 TIP3     122      TP3      H2       HW       0.417000       1.00800           0
     12298 TIP3     123      TP3      O        OW      -0.834000       16.0000           0
     12299 TIP3     123      TP3      H1       HW       0.417000       1.00800           0
     12300 TIP3     123      TP3      H2       HW       0.417000       1.00800           0
     12301 TIP3     124      TP3      O        OW      -0.834000       16.0000           0
     12302 TIP3     124      TP3      H1       HW       0.417000       1.00800           0
     12303 TIP3     124      TP3      H2       HW       0.417000       1.00800           0
     12304 TIP3     125      TP3      O        OW      -0.834000       16.0000           0
     12305 TIP3     125      TP3      H1       HW       0.417000       1.00800           0
     12306 TIP3     125      TP3      H2       HW       0.417000       1.00800           0
     12307 TIP3     126      TP3      O        OW      -0.834000       16.0000           0
     12308 TIP3     126      TP3      H1       HW       0.417000       1.00800           0
     12309 TIP3     126      TP3      H2       HW       0.417000       1.00800           0
     12310 TIP3     127      TP3      O        OW      -0.834000       16.0000           0
     12311 TIP3     127      TP3      H1       HW       0.417000       1.00800           0
     12312 TIP3     127      TP3      H2       HW       0.417000       1.00800           0
     12313 TIP3     128      TP3      O        OW      -0.834000       16.0000           0
     12314 TIP3     128      TP3      H1       HW       0.417000       1.00800           0
     12315 TIP3     128      TP3      H2       HW       0.417000       1.00800           0
     12316 TIP3     129      TP3      O        OW      -0.834000       16.0000           0
     12317 TIP3     129      TP3      H1       HW       0.417000       1.00800           0
     12318 TIP3     129      TP3      H2       HW       0.417000       1.00800           0
     12319 TIP3     130      TP3      O        OW      -0.834000       16.0000           0
     12320 TIP3     130      TP3      H1       HW       0.417000       1.00800           0
     12321 TIP3     130      TP3      H2       HW       0.417000       1.00800           0
     12322 TIP3     131      TP3      O        OW      -0.834000       16.0000           0
     12323 TIP3     131      TP3      H1       HW       0.417000       1.00800           0
     12324 TIP3     131      TP3      H2       HW       0.417000       1.00800           0
     12325 TIP3     132      TP3      O        OW      -0.834000       16.0000           0
     12326 TIP3     132      TP3      H1       HW       0.417000       1.00800           0
     12327 TIP3     132      TP3      H2       HW       0.417000       1.00800           0
     12328 TIP3     133      TP3      O        OW      -0.834000       16.0000           0
     12329 TIP3     133      TP3      H1       HW       0.417000       1.00800           0
     12330 TIP3     133      TP3      H2       HW       0.417000       1.00800           0
     12331 TIP3     134      TP3      O        OW      -0.834000       16.0000           0
     12332 TIP3     134      TP3      H1       HW       0.417000       1.00800           0
     12333 TIP3     134      TP3      H2       HW       0.417000       1.00800           0
     12334 TIP3     135      TP3      O        OW      -0.834000       16.0000           0
     12335 TIP3     135      TP3      H1       HW       0.417000       1.00800           0
     12336 TIP3     135      TP3      H2       HW       0.417000       1.00800           0
     12337 TIP3     136      TP3      O        OW      -0.834000       16.0000           0
     12338 TIP3     136      TP3      H1       HW       0.417000       1.00800           0
     12339 TIP3     136      TP3      H2       HW       0.417000       1.00800           0
     12340 TIP3     137      TP3      O        OW      -0.834000       16.0000           0
     12341 TIP3     137      TP3      H1       HW       0.417000       1.00800           0
     12342 TIP3     137      TP3      H2       HW       0.417000       1.00800           0
     12343 TIP3     138      TP3      O        OW      -0.834000       16.0000           0
     12344 TIP3     138      TP3      H1       HW       0.417000       1.00800           0
     12345 TIP3     138      TP3      H2       HW       0.417000       1.00800           0
     12346 TIP3     139      TP3      O        OW      -0.834000       16.0000           0
     12347 TIP3     139      TP3      H1       HW       0.417000       1.00800           0
     12348 TIP3     139      TP3      H2       HW       0.417000       1.00800           0
     12349 TIP3     140      TP3      O        OW      -0.834000       16.0000           0
     12350 TIP3     140      TP3      H1       HW       0.417000       1.00800           0
     12351 TIP3     140      TP3      H2       HW       0.417000       1.00800           0
     12352 TIP3     141      TP3      O        OW      -0.834000       16.0000           0
     12353 TIP3     141      TP3      H1       HW       0.417000       1.00800           0
     12354 TIP3     141      TP3      H2       HW       0.417000       1.00800           0
     12355 TIP3     142      TP3      O        OW      -0.834000       16.0000           0
     12356 TIP3     142      TP3      H1       HW       0.417000       1.00800           0
     12357 TIP3     142      TP3      H2       HW       0.417000       1.00800           0
     12358 TIP3     143      TP3      O        OW      -0.834000       16.0000           0
     12359 TIP3     143      TP3      H1       HW       0.417000       1.00800           0
     12360 TIP3     143      TP3      H2       HW       0.417000       1.00800           0
     12361 TIP3     144      TP3      O        OW      -0.834000       16.0000           0
     12362 TIP3     144      TP3      H1       HW       0.417000       1.00800           0
     12363 TIP3     144      TP3      H2       HW       0.417000       1.00800           0
     12364 TIP3     145      TP3      O        OW      -0.834000       16.0000           0
     12365 TIP3     145      TP3      H1       HW       0.417000       1.00800           0
     12366 TIP3     145      TP3      H2       HW       0.417000       1.00800           0
     12367 TIP3     146      TP3      O        OW      -0.834000       16.0000           0
     12368 TIP3     146      TP3      H1       HW       0.417000       1.00800           0
     12369 TIP3     146      TP3      H2       HW       0.417000       1.00800           0
     12370 TIP3     147      TP3      O        OW      -0.834000       16.0000           0
     12371 TIP3     147      TP3      H1       HW       0.417000       1.00800           0
     12372 TIP3     147      TP3      H2       HW       0.417000       1.00800           0
     12373 TIP3     148      TP3      O        OW      -0.834000       16.0000           0
     12374 TIP3     148      TP3      H1       HW       0.417000       1.00800           0
     12375 TIP3     148      TP3      H2       HW       0.417000       1.00800           0
     12376 TIP3     149      TP3      O        OW      -0.834000       16.0000           0
     12377 TIP3     149      TP3      H1       HW       0.417000       1.00800           0
     12378 TIP3     149      TP3      H2       HW       0.417000       1.00800           0
     12379 TIP3     150      TP3      O        OW      -0.834000       16.0000           0
     12380 TIP3     150      TP3      H1       HW       0.417000       1.00800           0
     12381 TIP3     150      TP3      H2       HW       0.417000       1.00800           0
     12382 TIP3     151      TP3      O        OW      -0.834000       16.0000           0
     12383 TIP3     151      TP3      H1       HW       0.417000       1.00800           0
     12384 TIP3     151      TP3      H2       HW       0.417000       1.00800           0
     12385 TIP3     152      TP3      O        OW      -0.834000       16.0000           0
     12386 TIP3     152      TP3      H1       HW       0.417000       1.00800           0
     12387 TIP3     152      TP3      H2       HW       0.417000       1.00800           0
     12388 TIP3     153      TP3      O        OW      -0.834000       16.0000           0
     12389 TIP3     153      TP3      H1       HW       0.417000       1.00800           0
     12390 TIP3     153      TP3      H2       HW       0.417000       1.00800           0
     12391 TIP3     154      TP3      O        OW      -0.834000       16.0000           0
     12392 TIP3     154      TP3      H1       HW       0.417000       1.00800           0
     12393 TIP3     154      TP3      H2       HW       0.417000       1.00800           0
     12394 TIP3     155      TP3      O        OW      -0.834000       16.0000           0
     12395 TIP3     155      TP3      H1       HW       0.417000       1.00800           0
     12396 TIP3     155      TP3      H2       HW       0.417000       1.00800           0
     12397 TIP3     156      TP3      O        OW      -0.834000       16.0000           0
     12398 TIP3     156      TP3      H1       HW       0.417000       1.00800           0
     12399 TIP3     156      TP3      H2       HW       0.417000       1.00800           0
     12400 TIP3     157      TP3      O        OW      -0.834000       16.0000           0
     12401 TIP3     157      TP3      H1       HW       0.417000       1.00800           0
     12402 TIP3     157      TP3      H2       HW       0.417000       1.00800           0
     12403 TIP3     158      TP3      O        OW      -0.834000       16.0000           0
     12404 TIP3     158      TP3      H1       HW       0.417000       1.00800           0
     12405 TIP3     158      TP3      H2       HW       0.417000       1.00800           0
     12406 TIP3     159      TP3      O        OW      -0.834000       16.0000           0
     12407 TIP3     159      TP3      H1       HW       0.417000       1.00800           0
     12408 TIP3     159      TP3      H2       HW       0.417000       1.00800           0
     12409 TIP3     160      TP3      O        OW      -0.834000       16.0000           0
     12410 TIP3     160      TP3      H1       HW       0.417000       1.00800           0
     12411 TIP3     160      TP3      H2       HW       0.417000       1.00800           0
     12412 TIP3     161      TP3      O        OW      -0.834000       16.0000           0
     12413 TIP3     161      TP3      H1       HW       0.417000       1.00800           0
     12414 TIP3     161      TP3      H2       HW       0.417000       1.00800           0
     12415 TIP3     162      TP3      O        OW      -0.834000       16.0000           0
     12416 TIP3     162      TP3      H1       HW       0.417000       1.00800           0
     12417 TIP3     162      TP3      H2       HW       0.417000       1.00800           0
     12418 TIP3     163      TP3      O        OW      -0.834000       16.0000           0
     12419 TIP3     163      TP3      H1       HW       0.417000       1.00800           0
     12420 TIP3     163      TP3      H2       HW       0.417000       1.00800           0
     12421 TIP3     164      TP3      O        OW      -0.834000       16.0000           0
     12422 TIP3     164      TP3      H1       HW       0.417000       1.00800           0
     12423 TIP3     164      TP3      H2       HW       0.417000       1.00800           0
     12424 TIP3     165      TP3      O        OW      -0.834000       16.0000           0
     12425 TIP3     165      TP3      H1       HW       0.417000       1.00800           0
     12426 TIP3     165      TP3      H2       HW       0.417000       1.00800           0
     12427 TIP3     166      TP3      O        OW      -0.834000       16.0000           0
     12428 TIP3     166      TP3      H1       HW       0.417000       1.00800           0
     12429 TIP3     166      TP3      H2       HW       0.417000       1.00800           0
     12430 TIP3     167      TP3      O        OW      -0.834000       16.0000           0
     12431 TIP3     167      TP3      H1       HW       0.417000       1.00800           0
     12432 TIP3     167      TP3      H2       HW       0.417000       1.00800           0
     12433 TIP3     168      TP3      O        OW      -0.834000       16.0000           0
     12434 TIP3     168      TP3      H1       HW       0.417000       1.00800           0
     12435 TIP3     168      TP3      H2       HW       0.417000       1.00800           0
     12436 TIP3     169      TP3      O        OW      -0.834000       16.0000           0
     12437 TIP3     169      TP3      H1       HW       0.417000       1.00800           0
     12438 TIP3     169      TP3      H2       HW       0.417000       1.00800           0
     12439 TIP3     170      TP3      O        OW      -0.834000       16.0000           0
     12440 TIP3     170      TP3      H1       HW       0.417000       1.00800           0
     12441 TIP3     170      TP3      H2       HW       0.417000       1.00800           0
     12442 TIP3     171      TP3      O        OW      -0.834000       16.0000           0
     12443 TIP3     171      TP3      H1       HW       0.417000       1.00800           0
     12444 TIP3     171      TP3      H2       HW       0.417000       1.00800           0
     12445 TIP3     172      TP3      O        OW      -0.834000       16.0000           0
     12446 TIP3     172      TP3      H1       HW       0.417000       1.00800           0
     12447 TIP3     172      TP3      H2       HW       0.417000       1.00800           0
     12448 TIP3     173      TP3      O        OW      -0.834000       16.0000           0
     12449 TIP3     173      TP3      H1       HW       0.417000       1.00800           0
     12450 TIP3     173      TP3      H2       HW       0.417000       1.00800           0
     12451 TIP3     174      TP3      O        OW      -0.834000       16.0000           0
     12452 TIP3     174      TP3      H1       HW       0.417000       1.00800           0
     12453 TIP3     174      TP3      H2       HW       0.417000       1.00800           0
     12454 TIP3     175      TP3      O        OW      -0.834000       16.0000           0
     12455 TIP3     175      TP3      H1       HW       0.417000       1.00800           0
     12456 TIP3     175      TP3      H2       HW       0.417000       1.00800           0
     12457 TIP3     176      TP3      O        OW      -0.834000       16.0000           0
     12458 TIP3     176      TP3      H1       HW       0.417000       1.00800           0
     12459 TIP3     176      TP3      H2       HW       0.417000       1.00800           0
     12460 TIP3     177      TP3      O        OW      -0.834000       16.0000           0
     12461 TIP3     177      TP3      H1       HW       0.417000       1.00800           0
     12462 TIP3     177      TP3      H2       HW       0.417000       1.00800           0
     12463 TIP3     178      TP3      O        OW      -0.834000       16.0000           0
     12464 TIP3     178      TP3      H1       HW       0.417000       1.00800           0
     12465 TIP3     178      TP3      H2       HW       0.417000       1.00800           0
     12466 TIP3     179      TP3      O        OW      -0.834000       16.0000           0
     12467 TIP3     179      TP3      H1       HW       0.417000       1.00800           0
     12468 TIP3     179      TP3      H2       HW       0.417000       1.00800           0
     12469 TIP3     180      TP3      O        OW      -0.834000       16.0000           0
     12470 TIP3     180      TP3      H1       HW       0.417000       1.00800           0
     12471 TIP3     180      TP3      H2       HW       0.417000       1.00800           0
     12472 TIP3     181      TP3      O        OW      -0.834000       16.0000           0
     12473 TIP3     181      TP3      H1       HW       0.417000       1.00800           0
     12474 TIP3     181      TP3      H2       HW       0.417000       1.00800           0
     12475 TIP3     182      TP3      O        OW      -0.834000       16.0000           0
     12476 TIP3     182      TP3      H1       HW       0.417000       1.00800           0
     12477 TIP3     182      TP3      H2       HW       0.417000       1.00800           0
     12478 TIP3     183      TP3      O        OW      -0.834000       16.0000           0
     12479 TIP3     183      TP3      H1       HW       0.417000       1.00800           0
     12480 TIP3     183      TP3      H2       HW       0.417000       1.00800           0
     12481 TIP3     184      TP3      O        OW      -0.834000       16.0000           0
     12482 TIP3     184      TP3      H1       HW       0.417000       1.00800           0
     12483 TIP3     184      TP3      H2       HW       0.417000       1.00800           0
     12484 TIP3     185      TP3      O        OW      -0.834000       16.0000           0
     12485 TIP3     185      TP3      H1       HW       0.417000       1.00800           0
     12486 TIP3     185      TP3      H2       HW       0.417000       1.00800           0
     12487 TIP3     186      TP3      O        OW      -0.834000       16.0000           0
     12488 TIP3     186      TP3      H1       HW       0.417000       1.00800           0
     12489 TIP3     186      TP3      H2       HW       0.417000       1.00800           0
     12490 TIP3     187      TP3      O        OW      -0.834000       16.0000           0
     12491 TIP3     187      TP3      H1       HW       0.417000       1.00800           0
     12492 TIP3     187      TP3      H2       HW       0.417000       1.00800           0
     12493 TIP3     188      TP3      O        OW      -0.834000       16.0000           0
     12494 TIP3     188      TP3      H1       HW       0.417000       1.00800           0
     12495 TIP3     188      TP3      H2       HW       0.417000       1.00800           0
     12496 TIP3     189      TP3      O        OW      -0.834000       16.0000           0
     12497 TIP3     189      TP3      H1       HW       0.417000       1.00800           0
     12498 TIP3     189      TP3      H2       HW       0.417000       1.00800           0
     12499 TIP3     190      TP3      O        OW      -0.834000       16.0000           0
     12500 TIP3     190      TP3      H1       HW       0.417000       1.00800           0
     12501 TIP3     190      TP3      H2       HW       0.417000       1.00800           0
     12502 TIP3     191      TP3      O        OW      -0.834000       16.0000           0
     12503 TIP3     191      TP3      H1       HW       0.417000       1.00800           0
     12504 TIP3     191      TP3      H2       HW       0.417000       1.00800           0
     12505 TIP3     192      TP3      O        OW      -0.834000       16.0000           0
     12506 TIP3     192      TP3      H1       HW       0.417000       1.00800           0
     12507 TIP3     192      TP3      H2       HW       0.417000       1.00800           0
     12508 TIP3     193      TP3      O        OW      -0.834000       16.0000           0
     12509 TIP3     193      TP3      H1       HW       0.417000       1.00800           0
     12510 TIP3     193      TP3      H2       HW       0.417000       1.00800           0
     12511 TIP3     194      TP3      O        OW      -0.834000       16.0000           0
     12512 TIP3     194      TP3      H1       HW       0.417000       1.00800           0
     12513 TIP3     194      TP3      H2       HW       0.417000       1.00800           0
     12514 TIP3     195      TP3      O        OW      -0.834000       16.0000           0
     12515 TIP3     195      TP3      H1       HW       0.417000       1.00800           0
     12516 TIP3     195      TP3      H2       HW       0.417000       1.00800           0
     12517 TIP3     196      TP3      O        OW      -0.834000       16.0000           0
     12518 TIP3     196      TP3      H1       HW       0.417000       1.00800           0
     12519 TIP3     196      TP3      H2       HW       0.417000       1.00800           0
     12520 TIP3     197      TP3      O        OW      -0.834000       16.0000           0
     12521 TIP3     197      TP3      H1       HW       0.417000       1.00800           0
     12522 TIP3     197      TP3      H2       HW       0.417000       1.00800           0
     12523 TIP3     198      TP3      O        OW      -0.834000       16.0000           0
     12524 TIP3     198      TP3      H1       HW       0.417000       1.00800           0
     12525 TIP3     198      TP3      H2       HW       0.417000       1.00800           0
     12526 TIP3     199      TP3      O        OW      -0.834000       16.0000           0
     12527 TIP3     199      TP3      H1       HW       0.417000       1.00800           0
     12528 TIP3     199      TP3      H2       HW       0.417000       1.00800           0
     12529 TIP3     200      TP3      O        OW      -0.834000       16.0000           0
     12530 TIP3     200      TP3      H1       HW       0.417000       1.00800           0
     12531 TIP3     200      TP3      H2       HW       0.417000       1.00800           0
     12532 TIP3     201      TP3      O        OW      -0.834000       16.0000           0
     12533 TIP3     201      TP3      H1       HW       0.417000       1.00800           0
     12534 TIP3     201      TP3      H2       HW       0.417000       1.00800           0
     12535 TIP3     202      TP3      O        OW      -0.834000       16.0000           0
     12536 TIP3     202      TP3      H1       HW       0.417000       1.00800           0
     12537 TIP3     202      TP3      H2       HW       0.417000       1.00800           0
     12538 TIP3     203      TP3      O        OW      -0.834000       16.0000           0
     12539 TIP3     203      TP3      H1       HW       0.417000       1.00800           0
     12540 TIP3     203      TP3      H2       HW       0.417000       1.00800           0
     12541 TIP3     204      TP3      O        OW      -0.834000       16.0000           0
     12542 TIP3     204      TP3      H1       HW       0.417000       1.00800           0
     12543 TIP3     204      TP3      H2       HW       0.417000       1.00800           0
     12544 TIP3     205      TP3      O        OW      -0.834000       16.0000           0
     12545 TIP3     205      TP3      H1       HW       0.417000       1.00800           0
     12546 TIP3     205      TP3      H2       HW       0.417000       1.00800           0
     12547 TIP3     206      TP3      O        OW      -0.834000       16.0000           0
     12548 TIP3     206      TP3      H1       HW       0.417000       1.00800           0
     12549 TIP3     206      TP3      H2       HW       0.417000       1.00800           0
     12550 TIP3     207      TP3      O        OW      -0.834000       16.0000           0
     12551 TIP3     207      TP3      H1       HW       0.417000       1.00800           0
     12552 TIP3     207      TP3      H2       HW       0.417000       1.00800           0
     12553 TIP3     208      TP3      O        OW      -0.834000       16.0000           0
     12554 TIP3     208      TP3      H1       HW       0.417000       1.00800           0
     12555 TIP3     208      TP3      H2       HW       0.417000       1.00800           0
     12556 TIP3     209      TP3      O        OW      -0.834000       16.0000           0
     12557 TIP3     209      TP3      H1       HW       0.417000       1.00800           0
     12558 TIP3     209      TP3      H2       HW       0.417000       1.00800           0
     12559 TIP3     210      TP3      O        OW      -0.834000       16.0000           0
     12560 TIP3     210      TP3      H1       HW       0.417000       1.00800           0
     12561 TIP3     210      TP3      H2       HW       0.417000       1.00800           0
     12562 TIP3     211      TP3      O        OW      -0.834000       16.0000           0
     12563 TIP3     211      TP3      H1       HW       0.417000       1.00800           0
     12564 TIP3     211      TP3      H2       HW       0.417000       1.00800           0
     12565 TIP3     212      TP3      O        OW      -0.834000       16.0000           0
     12566 TIP3     212      TP3      H1       HW       0.417000       1.00800           0
     12567 TIP3     212      TP3      H2       HW       0.417000       1.00800           0
     12568 TIP3     213      TP3      O        OW      -0.834000       16.0000           0
     12569 TIP3     213      TP3      H1       HW       0.417000       1.00800           0
     12570 TIP3     213      TP3      H2       HW       0.417000       1.00800           0
     12571 TIP3     214      TP3      O        OW      -0.834000       16.0000           0
     12572 TIP3     214      TP3      H1       HW       0.417000       1.00800           0
     12573 TIP3     214      TP3      H2       HW       0.417000       1.00800           0
     12574 TIP3     215      TP3      O        OW      -0.834000       16.0000           0
     12575 TIP3     215      TP3      H1       HW       0.417000       1.00800           0
     12576 TIP3     215      TP3      H2       HW       0.417000       1.00800           0
     12577 TIP3     216      TP3      O        OW      -0.834000       16.0000           0
     12578 TIP3     216      TP3      H1       HW       0.417000       1.00800           0
     12579 TIP3     216      TP3      H2       HW       0.417000       1.00800           0
     12580 TIP3     217      TP3      O        OW      -0.834000       16.0000           0
     12581 TIP3     217      TP3      H1       HW       0.417000       1.00800           0
     12582 TIP3     217      TP3      H2       HW       0.417000       1.00800           0
     12583 TIP3     218      TP3      O        OW      -0.834000       16.0000           0
     12584 TIP3     218      TP3      H1       HW       0.417000       1.00800           0
     12585 TIP3     218      TP3      H2       HW       0.417000       1.00800           0
     12586 TIP3     219      TP3      O        OW      -0.834000       16.0000           0
     12587 TIP3     219      TP3      H1       HW       0.417000       1.00800           0
     12588 TIP3     219      TP3      H2       HW       0.417000       1.00800           0
     12589 TIP3     220      TP3      O        OW      -0.834000       16.0000           0
     12590 TIP3     220      TP3      H1       HW       0.417000       1.00800           0
     12591 TIP3     220      TP3      H2       HW       0.417000       1.00800           0
     12592 TIP3     221      TP3      O        OW      -0.834000       16.0000           0
     12593 TIP3     221      TP3      H1       HW       0.417000       1.00800           0
     12594 TIP3     221      TP3      H2       HW       0.417000       1.00800           0
     12595 TIP3     222      TP3      O        OW      -0.834000       16.0000           0
     12596 TIP3     222      TP3      H1       HW       0.417000       1.00800           0
     12597 TIP3     222      TP3      H2       HW       0.417000       1.00800           0
     12598 TIP3     223      TP3      O        OW      -0.834000       16.0000           0
     12599 TIP3     223      TP3      H1       HW       0.417000       1.00800           0
     12600 TIP3     223      TP3      H2       HW       0.417000       1.00800           0
     12601 TIP3     224      TP3      O        OW      -0.834000       16.0000           0
     12602 TIP3     224      TP3      H1       HW       0.417000       1.00800           0
     12603 TIP3     224      TP3      H2       HW       0.417000       1.00800           0
     12604 TIP3     225      TP3      O        OW      -0.834000       16.0000           0
     12605 TIP3     225      TP3      H1       HW       0.417000       1.00800           0
     12606 TIP3     225      TP3      H2       HW       0.417000       1.00800           0
     12607 TIP3     226      TP3      O        OW      -0.834000       16.0000           0
     12608 TIP3     226      TP3      H1       HW       0.417000       1.00800           0
     12609 TIP3     226      TP3      H2       HW       0.417000       1.00800           0
     12610 TIP3     227      TP3      O        OW      -0.834000       16.0000           0
     12611 TIP3     227      TP3      H1       HW       0.417000       1.00800           0
     12612 TIP3     227      TP3      H2       HW       0.417000       1.00800           0
     12613 TIP3     228      TP3      O        OW      -0.834000       16.0000           0
     12614 TIP3     228      TP3      H1       HW       0.417000       1.00800           0
     12615 TIP3     228      TP3      H2       HW       0.417000       1.00800           0
     12616 TIP3     229      TP3      O        OW      -0.834000       16.0000           0
     12617 TIP3     229      TP3      H1       HW       0.417000       1.00800           0
     12618 TIP3     229      TP3      H2       HW       0.417000       1.00800           0
     12619 TIP3     230      TP3      O        OW      -0.834000       16.0000           0
     12620 TIP3     230      TP3      H1       HW       0.417000       1.00800           0
     12621 TIP3     230      TP3      H2       HW       0.417000       1.00800           0
     12622 TIP3     231      TP3      O        OW      -0.834000       16.0000           0
     12623 TIP3     231      TP3      H1       HW       0.417000       1.00800           0
     12624 TIP3     231      TP3      H2       HW       0.417000       1.00800           0
     12625 TIP3     232      TP3      O        OW      -0.834000       16.0000           0
     12626 TIP3     232      TP3      H1       HW       0.417000       1.00800           0
     12627 TIP3     232      TP3      H2       HW       0.417000       1.00800           0
     12628 TIP3     233      TP3      O        OW      -0.834000       16.0000           0
     12629 TIP3     233      TP3      H1       HW       0.417000       1.00800           0
     12630 TIP3     233      TP3      H2       HW       0.417000       1.00800           0
     12631 TIP3     234      TP3      O        OW      -0.834000       16.0000           0
     12632 TIP3     234      TP3      H1       HW       0.417000       1.00800           0
     12633 TIP3     234      TP3      H2       HW       0.417000       1.00800           0
     12634 TIP3     235      TP3      O        OW      -0.834000       16.0000           0
     12635 TIP3     235      TP3      H1       HW       0.417000       1.00800           0
     12636 TIP3     235      TP3      H2       HW       0.417000       1.00800           0
     12637 TIP3     236      TP3      O        OW      -0.834000       16.0000           0
     12638 TIP3     236      TP3      H1       HW       0.417000       1.00800           0
     12639 TIP3     236      TP3      H2       HW       0.417000       1.00800           0
     12640 TIP3     237      TP3      O        OW      -0.834000       16.0000           0
     12641 TIP3     237      TP3      H1       HW       0.417000       1.00800           0
     12642 TIP3     237      TP3      H2       HW       0.417000       1.00800           0
     12643 TIP3     238      TP3      O        OW      -0.834000       16.0000           0
     12644 TIP3     238      TP3      H1       HW       0.417000       1.00800           0
     12645 TIP3     238      TP3      H2       HW       0.417000       1.00800           0
     12646 TIP3     239      TP3      O        OW      -0.834000       16.0000           0
     12647 TIP3     239      TP3      H1       HW       0.417000       1.00800           0
     12648 TIP3     239      TP3      H2       HW       0.417000       1.00800           0
     12649 TIP3     240      TP3      O        OW      -0.834000       16.0000           0
     12650 TIP3     240      TP3      H1       HW       0.417000       1.00800           0
     12651 TIP3     240      TP3      H2       HW       0.417000       1.00800           0
     12652 TIP3     241      TP3      O        OW      -0.834000       16.0000           0
     12653 TIP3     241      TP3      H1       HW       0.417000       1.00800           0
     12654 TIP3     241      TP3      H2       HW       0.417000       1.00800           0
     12655 TIP3     242      TP3      O        OW      -0.834000       16.0000           0
     12656 TIP3     242      TP3      H1       HW       0.417000       1.00800           0
     12657 TIP3     242      TP3      H2       HW       0.417000       1.00800           0
     12658 TIP3     243      TP3      O        OW      -0.834000       16.0000           0
     12659 TIP3     243      TP3      H1       HW       0.417000       1.00800           0
     12660 TIP3     243      TP3      H2       HW       0.417000       1.00800           0
     12661 TIP3     244      TP3      O        OW      -0.834000       16.0000           0
     12662 TIP3     244      TP3      H1       HW       0.417000       1.00800           0
     12663 TIP3     244      TP3      H2       HW       0.417000       1.00800           0
     12664 TIP3     245      TP3      O        OW      -0.834000       16.0000           0
     12665 TIP3     245      TP3      H1       HW       0.417000       1.00800           0
     12666 TIP3     245      TP3      H2       HW       0.417000       1.00800           0
     12667 TIP3     246      TP3      O        OW      -0.834000       16.0000           0
     12668 TIP3     246      TP3      H1       HW       0.417000       1.00800           0
     12669 TIP3     246      TP3      H2       HW       0.417000       1.00800           0
     12670 TIP3     247      TP3      O        OW      -0.834000       16.0000           0
     12671 TIP3     247      TP3      H1       HW       0.417000       1.00800           0
     12672 TIP3     247      TP3      H2       HW       0.417000       1.00800           0
     12673 TIP3     248      TP3      O        OW      -0.834000       16.0000           0
     12674 TIP3     248      TP3      H1       HW       0.417000       1.00800           0
     12675 TIP3     248      TP3      H2       HW       0.417000       1.00800           0
     12676 TIP3     249      TP3      O        OW      -0.834000       16.0000           0
     12677 TIP3     249      TP3      H1       HW       0.417000       1.00800           0
     12678 TIP3     249      TP3      H2       HW       0.417000       1.00800           0
     12679 TIP3     250      TP3      O        OW      -0.834000       16.0000           0
     12680 TIP3     250      TP3      H1       HW       0.417000       1.00800           0
     12681 TIP3     250      TP3      H2       HW       0.417000       1.00800           0
     12682 TIP3     251      TP3      O        OW      -0.834000       16.0000           0
     12683 TIP3     251      TP3      H1       HW       0.417000       1.00800           0
     12684 TIP3     251      TP3      H2       HW       0.417000       1.00800           0
     12685 TIP3     252      TP3      O        OW      -0.834000       16.0000           0
     12686 TIP3     252      TP3      H1       HW       0.417000       1.00800           0
     12687 TIP3     252      TP3      H2       HW       0.417000       1.00800           0
     12688 TIP3     253      TP3      O        OW      -0.834000       16.0000           0
     12689 TIP3     253      TP3      H1       HW       0.417000       1.00800           0
     12690 TIP3     253      TP3      H2       HW       0.417000       1.00800           0
     12691 TIP3     254      TP3      O        OW      -0.834000       16.0000           0
     12692 TIP3     254      TP3      H1       HW       0.417000       1.00800           0
     12693 TIP3     254      TP3      H2       HW       0.417000       1.00800           0
     12694 TIP3     255      TP3      O        OW      -0.834000       16.0000           0
     12695 TIP3     255      TP3      H1       HW       0.417000       1.00800           0
     12696 TIP3     255      TP3      H2       HW       0.417000       1.00800           0
     12697 TIP3     256      TP3      O        OW      -0.834000       16.0000           0
     12698 TIP3     256      TP3      H1       HW       0.417000       1.00800           0
     12699 TIP3     256      TP3      H2       HW       0.417000       1.00800           0
     12700 TIP3     257      TP3      O        OW      -0.834000       16.0000           0
     12701 TIP3     257      TP3      H1       HW       0.417000       1.00800           0
     12702 TIP3     257      TP3      H2       HW       0.417000       1.00800           0
     12703 TIP3     258      TP3      O        OW      -0.834000       16.0000           0
     12704 TIP3     258      TP3      H1       HW       0.417000       1.00800           0
     12705 TIP3     258      TP3      H2       HW       0.417000       1.00800           0
     12706 TIP3     259      TP3      O        OW      -0.834000       16.0000           0
     12707 TIP3     259      TP3      H1       HW       0.417000       1.00800           0
     12708 TIP3     259      TP3      H2       HW       0.417000       1.00800           0
     12709 TIP3     260      TP3      O        OW      -0.834000       16.0000           0
     12710 TIP3     260      TP3      H1       HW       0.417000       1.00800           0
     12711 TIP3     260      TP3      H2       HW       0.417000       1.00800           0
     12712 TIP3     261      TP3      O        OW      -0.834000       16.0000           0
     12713 TIP3     261      TP3      H1       HW       0.417000       1.00800           0
     12714 TIP3     261      TP3      H2       HW       0.417000       1.00800           0
     12715 TIP3     262      TP3      O        OW      -0.834000       16.0000           0
     12716 TIP3     262      TP3      H1       HW       0.417000       1.00800           0
     12717 TIP3     262      TP3      H2       HW       0.417000       1.00800           0
     12718 TIP3     263      TP3      O        OW      -0.834000       16.0000           0
     12719 TIP3     263      TP3      H1       HW       0.417000       1.00800           0
     12720 TIP3     263      TP3      H2       HW       0.417000       1.00800           0
     12721 TIP3     264      TP3      O        OW      -0.834000       16.0000           0
     12722 TIP3     264      TP3      H1       HW       0.417000       1.00800           0
     12723 TIP3     264      TP3      H2       HW       0.417000       1.00800           0
     12724 TIP3     265      TP3      O        OW      -0.834000       16.0000           0
     12725 TIP3     265      TP3      H1       HW       0.417000       1.00800           0
     12726 TIP3     265      TP3      H2       HW       0.417000       1.00800           0
     12727 TIP3     266      TP3      O        OW      -0.834000       16.0000           0
     12728 TIP3     266      TP3      H1       HW       0.417000       1.00800           0
     12729 TIP3     266      TP3      H2       HW       0.417000       1.00800           0
     12730 TIP3     267      TP3      O        OW      -0.834000       16.0000           0
     12731 TIP3     267      TP3      H1       HW       0.417000       1.00800           0
     12732 TIP3     267      TP3      H2       HW       0.417000       1.00800           0
     12733 TIP3     268      TP3      O        OW      -0.834000       16.0000           0
     12734 TIP3     268      TP3      H1       HW       0.417000       1.00800           0
     12735 TIP3     268      TP3      H2       HW       0.417000       1.00800           0
     12736 TIP3     269      TP3      O        OW      -0.834000       16.0000           0
     12737 TIP3     269      TP3      H1       HW       0.417000       1.00800           0
     12738 TIP3     269      TP3      H2       HW       0.417000       1.00800           0
     12739 TIP3     270      TP3      O        OW      -0.834000       16.0000           0
     12740 TIP3     270      TP3      H1       HW       0.417000       1.00800           0
     12741 TIP3     270      TP3      H2       HW       0.417000       1.00800           0
     12742 TIP3     271      TP3      O        OW      -0.834000       16.0000           0
     12743 TIP3     271      TP3      H1       HW       0.417000       1.00800           0
     12744 TIP3     271      TP3      H2       HW       0.417000       1.00800           0
     12745 TIP3     272      TP3      O        OW      -0.834000       16.0000           0
     12746 TIP3     272      TP3      H1       HW       0.417000       1.00800           0
     12747 TIP3     272      TP3      H2       HW       0.417000       1.00800           0
     12748 TIP3     273      TP3      O        OW      -0.834000       16.0000           0
     12749 TIP3     273      TP3      H1       HW       0.417000       1.00800           0
     12750 TIP3     273      TP3      H2       HW       0.417000       1.00800           0
     12751 TIP3     274      TP3      O        OW      -0.834000       16.0000           0
     12752 TIP3     274      TP3      H1       HW       0.417000       1.00800           0
     12753 TIP3     274      TP3      H2       HW       0.417000       1.00800           0
     12754 TIP3     275      TP3      O        OW      -0.834000       16.0000           0
     12755 TIP3     275      TP3      H1       HW       0.417000       1.00800           0
     12756 TIP3     275      TP3      H2       HW       0.417000       1.00800           0
     12757 TIP3     276      TP3      O        OW      -0.834000       16.0000           0
     12758 TIP3     276      TP3      H1       HW       0.417000       1.00800           0
     12759 TIP3     276      TP3      H2       HW       0.417000       1.00800           0
     12760 TIP3     277      TP3      O        OW      -0.834000       16.0000           0
     12761 TIP3     277      TP3      H1       HW       0.417000       1.00800           0
     12762 TIP3     277      TP3      H2       HW       0.417000       1.00800           0
     12763 TIP3     278      TP3      O        OW      -0.834000       16.0000           0
     12764 TIP3     278      TP3      H1       HW       0.417000       1.00800           0
     12765 TIP3     278      TP3      H2       HW       0.417000       1.00800           0
     12766 TIP3     279      TP3      O        OW      -0.834000       16.0000           0
     12767 TIP3     279      TP3      H1       HW       0.417000       1.00800           0
     12768 TIP3     279      TP3      H2       HW       0.417000       1.00800           0
     12769 TIP3     280      TP3      O        OW      -0.834000       16.0000           0
     12770 TIP3     280      TP3      H1       HW       0.417000       1.00800           0
     12771 TIP3     280      TP3      H2       HW       0.417000       1.00800           0
     12772 TIP3     281      TP3      O        OW      -0.834000       16.0000           0
     12773 TIP3     281      TP3      H1       HW       0.417000       1.00800           0
     12774 TIP3     281      TP3      H2       HW       0.417000       1.00800           0
     12775 TIP3     282      TP3      O        OW      -0.834000       16.0000           0
     12776 TIP3     282      TP3      H1       HW       0.417000       1.00800           0
     12777 TIP3     282      TP3      H2       HW       0.417000       1.00800           0
     12778 TIP3     283      TP3      O        OW      -0.834000       16.0000           0
     12779 TIP3     283      TP3      H1       HW       0.417000       1.00800           0
     12780 TIP3     283      TP3      H2       HW       0.417000       1.00800           0
     12781 TIP3     284      TP3      O        OW      -0.834000       16.0000           0
     12782 TIP3     284      TP3      H1       HW       0.417000       1.00800           0
     12783 TIP3     284      TP3      H2       HW       0.417000       1.00800           0
     12784 TIP3     285      TP3      O        OW      -0.834000       16.0000           0
     12785 TIP3     285      TP3      H1       HW       0.417000       1.00800           0
     12786 TIP3     285      TP3      H2       HW       0.417000       1.00800           0
     12787 TIP3     286      TP3      O        OW      -0.834000       16.0000           0
     12788 TIP3     286      TP3      H1       HW       0.417000       1.00800           0
     12789 TIP3     286      TP3      H2       HW       0.417000       1.00800           0
     12790 TIP3     287      TP3      O        OW      -0.834000       16.0000           0
     12791 TIP3     287      TP3      H1       HW       0.417000       1.00800           0
     12792 TIP3     287      TP3      H2       HW       0.417000       1.00800           0
     12793 TIP3     288      TP3      O        OW      -0.834000       16.0000           0
     12794 TIP3     288      TP3      H1       HW       0.417000       1.00800           0
     12795 TIP3     288      TP3      H2       HW       0.417000       1.00800           0
     12796 TIP3     289      TP3      O        OW      -0.834000       16.0000           0
     12797 TIP3     289      TP3      H1       HW       0.417000       1.00800           0
     12798 TIP3     289      TP3      H2       HW       0.417000       1.00800           0
     12799 TIP3     290      TP3      O        OW      -0.834000       16.0000           0
     12800 TIP3     290      TP3      H1       HW       0.417000       1.00800           0
     12801 TIP3     290      TP3      H2       HW       0.417000       1.00800           0
     12802 TIP3     291      TP3      O        OW      -0.834000       16.0000           0
     12803 TIP3     291      TP3      H1       HW       0.417000       1.00800           0
     12804 TIP3     291      TP3      H2       HW       0.417000       1.00800           0
     12805 TIP3     292      TP3      O        OW      -0.834000       16.0000           0
     12806 TIP3     292      TP3      H1       HW       0.417000       1.00800           0
     12807 TIP3     292      TP3      H2       HW       0.417000       1.00800           0
     12808 TIP3     293      TP3      O        OW      -0.834000       16.0000           0
     12809 TIP3     293      TP3      H1       HW       0.417000       1.00800           0
     12810 TIP3     293      TP3      H2       HW       0.417000       1.00800           0
     12811 TIP3     294      TP3      O        OW      -0.834000       16.0000           0
     12812 TIP3     294      TP3      H1       HW       0.417000       1.00800           0
     12813 TIP3     294      TP3      H2       HW       0.417000       1.00800           0
     12814 TIP3     295      TP3      O        OW      -0.834000       16.0000           0
     12815 TIP3     295      TP3      H1       HW       0.417000       1.00800           0
     12816 TIP3     295      TP3      H2       HW       0.417000       1.00800           0
     12817 TIP3     296      TP3      O        OW      -0.834000       16.0000           0
     12818 TIP3     296      TP3      H1       HW       0.417000       1.00800           0
     12819 TIP3     296      TP3      H2       HW       0.417000       1.00800           0
     12820 TIP3     297      TP3      O        OW      -0.834000       16.0000           0
     12821 TIP3     297      TP3      H1       HW       0.417000       1.00800           0
     12822 TIP3     297      TP3      H2       HW       0.417000       1.00800           0
     12823 TIP3     298      TP3      O        OW      -0.834000       16.0000           0
     12824 TIP3     298      TP3      H1       HW       0.417000       1.00800           0
     12825 TIP3     298      TP3      H2       HW       0.417000       1.00800           0
     12826 TIP3     299      TP3      O        OW      -0.834000       16.0000           0
     12827 TIP3     299      TP3      H1       HW       0.417000       1.00800           0
     12828 TIP3     299      TP3      H2       HW       0.417000       1.00800           0
     12829 TIP3     300      TP3      O        OW      -0.834000       16.0000           0
     12830 TIP3     300      TP3      H1       HW       0.417000       1.00800           0
     12831 TIP3     300      TP3      H2       HW       0.417000       1.00800           0
     12832 TIP3     301      TP3      O        OW      -0.834000       16.0000           0
     12833 TIP3     301      TP3      H1       HW       0.417000       1.00800           0
     12834 TIP3     301      TP3      H2       HW       0.417000       1.00800           0
     12835 TIP3     302      TP3      O        OW      -0.834000       16.0000           0
     12836 TIP3     302      TP3      H1       HW       0.417000       1.00800           0
     12837 TIP3     302      TP3      H2       HW       0.417000       1.00800           0
     12838 TIP3     303      TP3      O        OW      -0.834000       16.0000           0
     12839 TIP3     303      TP3      H1       HW       0.417000       1.00800           0
     12840 TIP3     303      TP3      H2       HW       0.417000       1.00800           0
     12841 TIP3     304      TP3      O        OW      -0.834000       16.0000           0
     12842 TIP3     304      TP3      H1       HW       0.417000       1.00800           0
     12843 TIP3     304      TP3      H2       HW       0.417000       1.00800           0
     12844 TIP3     305      TP3      O        OW      -0.834000       16.0000           0
     12845 TIP3     305      TP3      H1       HW       0.417000       1.00800           0
     12846 TIP3     305      TP3      H2       HW       0.417000       1.00800           0
     12847 TIP3     306      TP3      O        OW      -0.834000       16.0000           0
     12848 TIP3     306      TP3      H1       HW       0.417000       1.00800           0
     12849 TIP3     306      TP3      H2       HW       0.417000       1.00800           0
     12850 TIP3     307      TP3      O        OW      -0.834000       16.0000           0
     12851 TIP3     307      TP3      H1       HW       0.417000       1.00800           0
     12852 TIP3     307      TP3      H2       HW       0.417000       1.00800           0
     12853 TIP3     308      TP3      O        OW      -0.834000       16.0000           0
     12854 TIP3     308      TP3      H1       HW       0.417000       1.00800           0
     12855 TIP3     308      TP3      H2       HW       0.417000       1.00800           0
     12856 TIP3     309      TP3      O        OW      -0.834000       16.0000           0
     12857 TIP3     309      TP3      H1       HW       0.417000       1.00800           0
     12858 TIP3     309      TP3      H2       HW       0.417000       1.00800           0
     12859 TIP3     310      TP3      O        OW      -0.834000       16.0000           0
     12860 TIP3     310      TP3      H1       HW       0.417000       1.00800           0
     12861 TIP3     310      TP3      H2       HW       0.417000       1.00800           0
     12862 TIP3     311      TP3      O        OW      -0.834000       16.0000           0
     12863 TIP3     311      TP3      H1       HW       0.417000       1.00800           0
     12864 TIP3     311      TP3      H2       HW       0.417000       1.00800           0
     12865 TIP3     312      TP3      O        OW      -0.834000       16.0000           0
     12866 TIP3     312      TP3      H1       HW       0.417000       1.00800           0
     12867 TIP3     312      TP3      H2       HW       0.417000       1.00800           0
     12868 TIP3     313      TP3      O        OW      -0.834000       16.0000           0
     12869 TIP3     313      TP3      H1       HW       0.417000       1.00800           0
     12870 TIP3     313      TP3      H2       HW       0.417000       1.00800           0
     12871 TIP3     314      TP3      O        OW      -0.834000       16.0000           0
     12872 TIP3     314      TP3      H1       HW       0.417000       1.00800           0
     12873 TIP3     314      TP3      H2       HW       0.417000       1.00800           0
     12874 TIP3     315      TP3      O        OW      -0.834000       16.0000           0
     12875 TIP3     315      TP3      H1       HW       0.417000       1.00800           0
     12876 TIP3     315      TP3      H2       HW       0.417000       1.00800           0
     12877 TIP3     316      TP3      O        OW      -0.834000       16.0000           0
     12878 TIP3     316      TP3      H1       HW       0.417000       1.00800           0
     12879 TIP3     316      TP3      H2       HW       0.417000       1.00800           0
     12880 TIP3     317      TP3      O        OW      -0.834000       16.0000           0
     12881 TIP3     317      TP3      H1       HW       0.417000       1.00800           0
     12882 TIP3     317      TP3      H2       HW       0.417000       1.00800           0
     12883 TIP3     318      TP3      O        OW      -0.834000       16.0000           0
     12884 TIP3     318      TP3      H1       HW       0.417000       1.00800           0
     12885 TIP3     318      TP3      H2       HW       0.417000       1.00800           0
     12886 TIP3     319      TP3      O        OW      -0.834000       16.0000           0
     12887 TIP3     319      TP3      H1       HW       0.417000       1.00800           0
     12888 TIP3     319      TP3      H2       HW       0.417000       1.00800           0
     12889 TIP3     320      TP3      O        OW      -0.834000       16.0000           0
     12890 TIP3     320      TP3      H1       HW       0.417000       1.00800           0
     12891 TIP3     320      TP3      H2       HW       0.417000       1.00800           0
     12892 TIP3     321      TP3      O        OW      -0.834000       16.0000           0
     12893 TIP3     321      TP3      H1       HW       0.417000       1.00800           0
     12894 TIP3     321      TP3      H2       HW       0.417000       1.00800           0
     12895 TIP3     322      TP3      O        OW      -0.834000       16.0000           0
     12896 TIP3     322      TP3      H1       HW       0.417000       1.00800           0
     12897 TIP3     322      TP3      H2       HW       0.417000       1.00800           0
     12898 TIP3     323      TP3      O        OW      -0.834000       16.0000           0
     12899 TIP3     323      TP3      H1       HW       0.417000       1.00800           0
     12900 TIP3     323      TP3      H2       HW       0.417000       1.00800           0
     12901 TIP3     324      TP3      O        OW      -0.834000       16.0000           0
     12902 TIP3     324      TP3      H1       HW       0.417000       1.00800           0
     12903 TIP3     324      TP3      H2       HW       0.417000       1.00800           0
     12904 TIP3     325      TP3      O        OW      -0.834000       16.0000           0
     12905 TIP3     325      TP3      H1       HW       0.417000       1.00800           0
     12906 TIP3     325      TP3      H2       HW       0.417000       1.00800           0
     12907 TIP3     326      TP3      O        OW      -0.834000       16.0000           0
     12908 TIP3     326      TP3      H1       HW       0.417000       1.00800           0
     12909 TIP3     326      TP3      H2       HW       0.417000       1.00800           0
     12910 TIP3     327      TP3      O        OW      -0.834000       16.0000           0
     12911 TIP3     327      TP3      H1       HW       0.417000       1.00800           0
     12912 TIP3     327      TP3      H2       HW       0.417000       1.00800           0
     12913 TIP3     328      TP3      O        OW      -0.834000       16.0000           0
     12914 TIP3     328      TP3      H1       HW       0.417000       1.00800           0
     12915 TIP3     328      TP3      H2       HW       0.417000       1.00800           0
     12916 TIP3     329      TP3      O        OW      -0.834000       16.0000           0
     12917 TIP3     329      TP3      H1       HW       0.417000       1.00800           0
     12918 TIP3     329      TP3      H2       HW       0.417000       1.00800           0
     12919 TIP3     330      TP3      O        OW      -0.834000       16.0000           0
     12920 TIP3     330      TP3      H1       HW       0.417000       1.00800           0
     12921 TIP3     330      TP3      H2       HW       0.417000       1.00800           0
     12922 TIP3     331      TP3      O        OW      -0.834000       16.0000           0
     12923 TIP3     331      TP3      H1       HW       0.417000       1.00800           0
     12924 TIP3     331      TP3      H2       HW       0.417000       1.00800           0
     12925 TIP3     332      TP3      O        OW      -0.834000       16.0000           0
     12926 TIP3     332      TP3      H1       HW       0.417000       1.00800           0
     12927 TIP3     332      TP3      H2       HW       0.417000       1.00800           0
     12928 TIP3     333      TP3      O        OW      -0.834000       16.0000           0
     12929 TIP3     333      TP3      H1       HW       0.417000       1.00800           0
     12930 TIP3     333      TP3      H2       HW       0.417000       1.00800           0
     12931 TIP3     334      TP3      O        OW      -0.834000       16.0000           0
     12932 TIP3     334      TP3      H1       HW       0.417000       1.00800           0
     12933 TIP3     334      TP3      H2       HW       0.417000       1.00800           0
     12934 TIP3     335      TP3      O        OW      -0.834000       16.0000           0
     12935 TIP3     335      TP3      H1       HW       0.417000       1.00800           0
     12936 TIP3     335      TP3      H2       HW       0.417000       1.00800           0
     12937 TIP3     336      TP3      O        OW      -0.834000       16.0000           0
     12938 TIP3     336      TP3      H1       HW       0.417000       1.00800           0
     12939 TIP3     336      TP3      H2       HW       0.417000       1.00800           0
     12940 TIP3     337      TP3      O        OW      -0.834000       16.0000           0
     12941 TIP3     337      TP3      H1       HW       0.417000       1.00800           0
     12942 TIP3     337      TP3      H2       HW       0.417000       1.00800           0
     12943 TIP3     338      TP3      O        OW      -0.834000       16.0000           0
     12944 TIP3     338      TP3      H1       HW       0.417000       1.00800           0
     12945 TIP3     338      TP3      H2       HW       0.417000       1.00800           0
     12946 TIP3     339      TP3      O        OW      -0.834000       16.0000           0
     12947 TIP3     339      TP3      H1       HW       0.417000       1.00800           0
     12948 TIP3     339      TP3      H2       HW       0.417000       1.00800           0
     12949 TIP3     340      TP3      O        OW      -0.834000       16.0000           0
     12950 TIP3     340      TP3      H1       HW       0.417000       1.00800           0
     12951 TIP3     340      TP3      H2       HW       0.417000       1.00800           0
     12952 TIP3     341      TP3      O        OW      -0.834000       16.0000           0
     12953 TIP3     341      TP3      H1       HW       0.417000       1.00800           0
     12954 TIP3     341      TP3      H2       HW       0.417000       1.00800           0
     12955 TIP3     342      TP3      O        OW      -0.834000       16.0000           0
     12956 TIP3     342      TP3      H1       HW       0.417000       1.00800           0
     12957 TIP3     342      TP3      H2       HW       0.417000       1.00800           0
     12958 TIP3     343      TP3      O        OW      -0.834000       16.0000           0
     12959 TIP3     343      TP3      H1       HW       0.417000       1.00800           0
     12960 TIP3     343      TP3      H2       HW       0.417000       1.00800           0
     12961 TIP3     344      TP3      O        OW      -0.834000       16.0000           0
     12962 TIP3     344      TP3      H1       HW       0.417000       1.00800           0
     12963 TIP3     344      TP3      H2       HW       0.417000       1.00800           0
     12964 TIP3     345      TP3      O        OW      -0.834000       16.0000           0
     12965 TIP3     345      TP3      H1       HW       0.417000       1.00800           0
     12966 TIP3     345      TP3      H2       HW       0.417000       1.00800           0
     12967 TIP3     346      TP3      O        OW      -0.834000       16.0000           0
     12968 TIP3     346      TP3      H1       HW       0.417000       1.00800           0
     12969 TIP3     346      TP3      H2       HW       0.417000       1.00800           0
     12970 TIP3     347      TP3      O        OW      -0.834000       16.0000           0
     12971 TIP3     347      TP3      H1       HW       0.417000       1.00800           0
     12972 TIP3     347      TP3      H2       HW       0.417000       1.00800           0
     12973 TIP3     348      TP3      O        OW      -0.834000       16.0000           0
     12974 TIP3     348      TP3      H1       HW       0.417000       1.00800           0
     12975 TIP3     348      TP3      H2       HW       0.417000       1.00800           0
     12976 TIP3     349      TP3      O        OW      -0.834000       16.0000           0
     12977 TIP3     349      TP3      H1       HW       0.417000       1.00800           0
     12978 TIP3     349      TP3      H2       HW       0.417000       1.00800           0
     12979 TIP3     350      TP3      O        OW      -0.834000       16.0000           0
     12980 TIP3     350      TP3      H1       HW       0.417000       1.00800           0
     12981 TIP3     350      TP3      H2       HW       0.417000       1.00800           0
     12982 TIP3     351      TP3      O        OW      -0.834000       16.0000           0
     12983 TIP3     351      TP3      H1       HW       0.417000       1.00800           0
     12984 TIP3     351      TP3      H2       HW       0.417000       1.00800           0
     12985 TIP3     352      TP3      O        OW      -0.834000       16.0000           0
     12986 TIP3     352      TP3      H1       HW       0.417000       1.00800           0
     12987 TIP3     352      TP3      H2       HW       0.417000       1.00800           0
     12988 TIP3     353      TP3      O        OW      -0.834000       16.0000           0
     12989 TIP3     353      TP3      H1       HW       0.417000       1.00800           0
     12990 TIP3     353      TP3      H2       HW       0.417000       1.00800           0
     12991 TIP3     354      TP3      O        OW      -0.834000       16.0000           0
     12992 TIP3     354      TP3      H1       HW       0.417000       1.00800           0
     12993 TIP3     354      TP3      H2       HW       0.417000       1.00800           0
     12994 TIP3     355      TP3      O        OW      -0.834000       16.0000           0
     12995 TIP3     355      TP3      H1       HW       0.417000       1.00800           0
     12996 TIP3     355      TP3      H2       HW       0.417000       1.00800           0
     12997 TIP3     356      TP3      O        OW      -0.834000       16.0000           0
     12998 TIP3     356      TP3      H1       HW       0.417000       1.00800           0
     12999 TIP3     356      TP3      H2       HW       0.417000       1.00800           0
     13000 TIP3     357      TP3      O        OW      -0.834000       16.0000           0
     13001 TIP3     357      TP3      H1       HW       0.417000       1.00800           0
     13002 TIP3     357      TP3      H2       HW       0.417000       1.00800           0
     13003 TIP3     358      TP3      O        OW      -0.834000       16.0000           0
     13004 TIP3     358      TP3      H1       HW       0.417000       1.00800           0
     13005 TIP3     358      TP3      H2       HW       0.417000       1.00800           0
     13006 TIP3     359      TP3      O        OW      -0.834000       16.0000           0
     13007 TIP3     359      TP3      H1       HW       0.417000       1.00800           0
     13008 TIP3     359      TP3      H2       HW       0.417000       1.00800           0
     13009 TIP3     360      TP3      O        OW      -0.834000       16.0000           0
     13010 TIP3     360      TP3      H1       HW       0.417000       1.00800           0
     13011 TIP3     360      TP3      H2       HW       0.417000       1.00800           0
     13012 TIP3     361      TP3      O        OW      -0.834000       16.0000           0
     13013 TIP3     361      TP3      H1       HW       0.417000       1.00800           0
     13014 TIP3     361      TP3      H2       HW       0.417000       1.00800           0
     13015 TIP3     362      TP3      O        OW      -0.834000       16.0000           0
     13016 TIP3     362      TP3      H1       HW       0.417000       1.00800           0
     13017 TIP3     362      TP3      H2       HW       0.417000       1.00800           0
     13018 TIP3     363      TP3      O        OW      -0.834000       16.0000           0
     13019 TIP3     363      TP3      H1       HW       0.417000       1.00800           0
     13020 TIP3     363      TP3      H2       HW       0.417000       1.00800           0
     13021 TIP3     364      TP3      O        OW      -0.834000       16.0000           0
     13022 TIP3     364      TP3      H1       HW       0.417000       1.00800           0
     13023 TIP3     364      TP3      H2       HW       0.417000       1.00800           0
     13024 TIP3     365      TP3      O        OW      -0.834000       16.0000           0
     13025 TIP3     365      TP3      H1       HW       0.417000       1.00800           0
     13026 TIP3     365      TP3      H2       HW       0.417000       1.00800           0
     13027 TIP3     366      TP3      O        OW      -0.834000       16.0000           0
     13028 TIP3     366      TP3      H1       HW       0.417000       1.00800           0
     13029 TIP3     366      TP3      H2       HW       0.417000       1.00800           0
     13030 TIP3     367      TP3      O        OW      -0.834000       16.0000           0
     13031 TIP3     367      TP3      H1       HW       0.417000       1.00800           0
     13032 TIP3     367      TP3      H2       HW       0.417000       1.00800           0
     13033 TIP3     368      TP3      O        OW      -0.834000       16.0000           0
     13034 TIP3     368      TP3      H1       HW       0.417000       1.00800           0
     13035 TIP3     368      TP3      H2       HW       0.417000       1.00800           0
     13036 TIP3     369      TP3      O        OW      -0.834000       16.0000           0
     13037 TIP3     369      TP3      H1       HW       0.417000       1.00800           0
     13038 TIP3     369      TP3      H2       HW       0.417000       1.00800           0
     13039 TIP3     370      TP3      O        OW      -0.834000       16.0000           0
     13040 TIP3     370      TP3      H1       HW       0.417000       1.00800           0
     13041 TIP3     370      TP3      H2       HW       0.417000       1.00800           0
     13042 TIP3     371      TP3      O        OW      -0.834000       16.0000           0
     13043 TIP3     371      TP3      H1       HW       0.417000       1.00800           0
     13044 TIP3     371      TP3      H2       HW       0.417000       1.00800           0
     13045 TIP3     372      TP3      O        OW      -0.834000       16.0000           0
     13046 TIP3     372      TP3      H1       HW       0.417000       1.00800           0
     13047 TIP3     372      TP3      H2       HW       0.417000       1.00800           0
     13048 TIP3     373      TP3      O        OW      -0.834000       16.0000           0
     13049 TIP3     373      TP3      H1       HW       0.417000       1.00800           0
     13050 TIP3     373      TP3      H2       HW       0.417000       1.00800           0
     13051 TIP3     374      TP3      O        OW      -0.834000       16.0000           0
     13052 TIP3     374      TP3      H1       HW       0.417000       1.00800           0
     13053 TIP3     374      TP3      H2       HW       0.417000       1.00800           0
     13054 TIP3     375      TP3      O        OW      -0.834000       16.0000           0
     13055 TIP3     375      TP3      H1       HW       0.417000       1.00800           0
     13056 TIP3     375      TP3      H2       HW       0.417000       1.00800           0
     13057 TIP3     376      TP3      O        OW      -0.834000       16.0000           0
     13058 TIP3     376      TP3      H1       HW       0.417000       1.00800           0
     13059 TIP3     376      TP3      H2       HW       0.417000       1.00800           0
     13060 TIP3     377      TP3      O        OW      -0.834000       16.0000           0
     13061 TIP3     377      TP3      H1       HW       0.417000       1.00800           0
     13062 TIP3     377      TP3      H2       HW       0.417000       1.00800           0
     13063 TIP3     378      TP3      O        OW      -0.834000       16.0000           0
     13064 TIP3     378      TP3      H1       HW       0.417000       1.00800           0
     13065 TIP3     378      TP3      H2       HW       0.417000       1.00800           0
     13066 TIP3     379      TP3      O        OW      -0.834000       16.0000           0
     13067 TIP3     379      TP3      H1       HW       0.417000       1.00800           0
     13068 TIP3     379      TP3      H2       HW       0.417000       1.00800           0
     13069 TIP3     380      TP3      O        OW      -0.834000       16.0000           0
     13070 TIP3     380      TP3      H1       HW       0.417000       1.00800           0
     13071 TIP3     380      TP3      H2       HW       0.417000       1.00800           0
     13072 TIP3     381      TP3      O        OW      -0.834000       16.0000           0
     13073 TIP3     381      TP3      H1       HW       0.417000       1.00800           0
     13074 TIP3     381      TP3      H2       HW       0.417000       1.00800           0
     13075 TIP3     382      TP3      O        OW      -0.834000       16.0000           0
     13076 TIP3     382      TP3      H1       HW       0.417000       1.00800           0
     13077 TIP3     382      TP3      H2       HW       0.417000       1.00800           0
     13078 TIP3     383      TP3      O        OW      -0.834000       16.0000           0
     13079 TIP3     383      TP3      H1       HW       0.417000       1.00800           0
     13080 TIP3     383      TP3      H2       HW       0.417000       1.00800           0
     13081 TIP3     384      TP3      O        OW      -0.834000       16.0000           0
     13082 TIP3     384      TP3      H1       HW       0.417000       1.00800           0
     13083 TIP3     384      TP3      H2       HW       0.417000       1.00800           0
     13084 TIP3     385      TP3      O        OW      -0.834000       16.0000           0
     13085 TIP3     385      TP3      H1       HW       0.417000       1.00800           0
     13086 TIP3     385      TP3      H2       HW       0.417000       1.00800           0
     13087 TIP3     386      TP3      O        OW      -0.834000       16.0000           0
     13088 TIP3     386      TP3      H1       HW       0.417000       1.00800           0
     13089 TIP3     386      TP3      H2       HW       0.417000       1.00800           0
     13090 TIP3     387      TP3      O        OW      -0.834000       16.0000           0
     13091 TIP3     387      TP3      H1       HW       0.417000       1.00800           0
     13092 TIP3     387      TP3      H2       HW       0.417000       1.00800           0
     13093 TIP3     388      TP3      O        OW      -0.834000       16.0000           0
     13094 TIP3     388      TP3      H1       HW       0.417000       1.00800           0
     13095 TIP3     388      TP3      H2       HW       0.417000       1.00800           0
     13096 TIP3     389      TP3      O        OW      -0.834000       16.0000           0
     13097 TIP3     389      TP3      H1       HW       0.417000       1.00800           0
     13098 TIP3     389      TP3      H2       HW       0.417000       1.00800           0
     13099 TIP3     390      TP3      O        OW      -0.834000       16.0000           0
     13100 TIP3     390      TP3      H1       HW       0.417000       1.00800           0
     13101 TIP3     390      TP3      H2       HW       0.417000       1.00800           0
     13102 TIP3     391      TP3      O        OW      -0.834000       16.0000           0
     13103 TIP3     391      TP3      H1       HW       0.417000       1.00800           0
     13104 TIP3     391      TP3      H2       HW       0.417000       1.00800           0
     13105 TIP3     392      TP3      O        OW      -0.834000       16.0000           0
     13106 TIP3     392      TP3      H1       HW       0.417000       1.00800           0
     13107 TIP3     392      TP3      H2       HW       0.417000       1.00800           0
     13108 TIP3     393      TP3      O        OW      -0.834000       16.0000           0
     13109 TIP3     393      TP3      H1       HW       0.417000       1.00800           0
     13110 TIP3     393      TP3      H2       HW       0.417000       1.00800           0
     13111 TIP3     394      TP3      O        OW      -0.834000       16.0000           0
     13112 TIP3     394      TP3      H1       HW       0.417000       1.00800           0
     13113 TIP3     394      TP3      H2       HW       0.417000       1.00800           0
     13114 TIP3     395      TP3      O        OW      -0.834000       16.0000           0
     13115 TIP3     395      TP3      H1       HW       0.417000       1.00800           0
     13116 TIP3     395      TP3      H2       HW       0.417000       1.00800           0
     13117 TIP3     396      TP3      O        OW      -0.834000       16.0000           0
     13118 TIP3     396      TP3      H1       HW       0.417000       1.00800           0
     13119 TIP3     396      TP3      H2       HW       0.417000       1.00800           0
     13120 TIP3     397      TP3      O        OW      -0.834000       16.0000           0
     13121 TIP3     397      TP3      H1       HW       0.417000       1.00800           0
     13122 TIP3     397      TP3      H2       HW       0.417000       1.00800           0
     13123 TIP3     398      TP3      O        OW      -0.834000       16.0000           0
     13124 TIP3     398      TP3      H1       HW       0.417000       1.00800           0
     13125 TIP3     398      TP3      H2       HW       0.417000       1.00800           0
     13126 TIP3     399      TP3      O        OW      -0.834000       16.0000           0
     13127 TIP3     399      TP3      H1       HW       0.417000       1.00800           0
     13128 TIP3     399      TP3      H2       HW       0.417000       1.00800           0
     13129 TIP3     400      TP3      O        OW      -0.834000       16.0000           0
     13130 TIP3     400      TP3      H1       HW       0.417000       1.00800           0
     13131 TIP3     400      TP3      H2       HW       0.417000       1.00800           0
     13132 TIP3     401      TP3      O        OW      -0.834000       16.0000           0
     13133 TIP3     401      TP3      H1       HW       0.417000       1.00800           0
     13134 TIP3     401      TP3      H2       HW       0.417000       1.00800           0
     13135 TIP3     402      TP3      O        OW      -0.834000       16.0000           0
     13136 TIP3     402      TP3      H1       HW       0.417000       1.00800           0
     13137 TIP3     402      TP3      H2       HW       0.417000       1.00800           0
     13138 TIP3     403      TP3      O        OW      -0.834000       16.0000           0
     13139 TIP3     403      TP3      H1       HW       0.417000       1.00800           0
     13140 TIP3     403      TP3      H2       HW       0.417000       1.00800           0
     13141 TIP3     404      TP3      O        OW      -0.834000       16.0000           0
     13142 TIP3     404      TP3      H1       HW       0.417000       1.00800           0
     13143 TIP3     404      TP3      H2       HW       0.417000       1.00800           0
     13144 TIP3     405      TP3      O        OW      -0.834000       16.0000           0
     13145 TIP3     405      TP3      H1       HW       0.417000       1.00800           0
     13146 TIP3     405      TP3      H2       HW       0.417000       1.00800           0
     13147 TIP3     406      TP3      O        OW      -0.834000       16.0000           0
     13148 TIP3     406      TP3      H1       HW       0.417000       1.00800           0
     13149 TIP3     406      TP3      H2       HW       0.417000       1.00800           0
     13150 TIP3     407      TP3      O        OW      -0.834000       16.0000           0
     13151 TIP3     407      TP3      H1       HW       0.417000       1.00800           0
     13152 TIP3     407      TP3      H2       HW       0.417000       1.00800           0
     13153 TIP3     408      TP3      O        OW      -0.834000       16.0000           0
     13154 TIP3     408      TP3      H1       HW       0.417000       1.00800           0
     13155 TIP3     408      TP3      H2       HW       0.417000       1.00800           0
     13156 TIP3     409      TP3      O        OW      -0.834000       16.0000           0
     13157 TIP3     409      TP3      H1       HW       0.417000       1.00800           0
     13158 TIP3     409      TP3      H2       HW       0.417000       1.00800           0
     13159 TIP3     410      TP3      O        OW      -0.834000       16.0000           0
     13160 TIP3     410      TP3      H1       HW       0.417000       1.00800           0
     13161 TIP3     410      TP3      H2       HW       0.417000       1.00800           0
     13162 TIP3     411      TP3      O        OW      -0.834000       16.0000           0
     13163 TIP3     411      TP3      H1       HW       0.417000       1.00800           0
     13164 TIP3     411      TP3      H2       HW       0.417000       1.00800           0
     13165 TIP3     412      TP3      O        OW      -0.834000       16.0000           0
     13166 TIP3     412      TP3      H1       HW       0.417000       1.00800           0
     13167 TIP3     412      TP3      H2       HW       0.417000       1.00800           0
     13168 TIP3     413      TP3      O        OW      -0.834000       16.0000           0
     13169 TIP3     413      TP3      H1       HW       0.417000       1.00800           0
     13170 TIP3     413      TP3      H2       HW       0.417000       1.00800           0
     13171 TIP3     414      TP3      O        OW      -0.834000       16.0000           0
     13172 TIP3     414      TP3      H1       HW       0.417000       1.00800           0
     13173 TIP3     414      TP3      H2       HW       0.417000       1.00800           0
     13174 TIP3     415      TP3      O        OW      -0.834000       16.0000           0
     13175 TIP3     415      TP3      H1       HW       0.417000       1.00800           0
     13176 TIP3     415      TP3      H2       HW       0.417000       1.00800           0
     13177 TIP3     416      TP3      O        OW      -0.834000       16.0000           0
     13178 TIP3     416      TP3      H1       HW       0.417000       1.00800           0
     13179 TIP3     416      TP3      H2       HW       0.417000       1.00800           0
     13180 TIP3     417      TP3      O        OW      -0.834000       16.0000           0
     13181 TIP3     417      TP3      H1       HW       0.417000       1.00800           0
     13182 TIP3     417      TP3      H2       HW       0.417000       1.00800           0
     13183 TIP3     418      TP3      O        OW      -0.834000       16.0000           0
     13184 TIP3     418      TP3      H1       HW       0.417000       1.00800           0
     13185 TIP3     418      TP3      H2       HW       0.417000       1.00800           0
     13186 TIP3     419      TP3      O        OW      -0.834000       16.0000           0
     13187 TIP3     419      TP3      H1       HW       0.417000       1.00800           0
     13188 TIP3     419      TP3      H2       HW       0.417000       1.00800           0
     13189 TIP3     420      TP3      O        OW      -0.834000       16.0000           0
     13190 TIP3     420      TP3      H1       HW       0.417000       1.00800           0
     13191 TIP3     420      TP3      H2       HW       0.417000       1.00800           0
     13192 TIP3     421      TP3      O        OW      -0.834000       16.0000           0
     13193 TIP3     421      TP3      H1       HW       0.417000       1.00800           0
     13194 TIP3     421      TP3      H2       HW       0.417000       1.00800           0
     13195 TIP3     422      TP3      O        OW      -0.834000       16.0000           0
     13196 TIP3     422      TP3      H1       HW       0.417000       1.00800           0
     13197 TIP3     422      TP3      H2       HW       0.417000       1.00800           0
     13198 TIP3     423      TP3      O        OW      -0.834000       16.0000           0
     13199 TIP3     423      TP3      H1       HW       0.417000       1.00800           0
     13200 TIP3     423      TP3      H2       HW       0.417000       1.00800           0
     13201 TIP3     424      TP3      O        OW      -0.834000       16.0000           0
     13202 TIP3     424      TP3      H1       HW       0.417000       1.00800           0
     13203 TIP3     424      TP3      H2       HW       0.417000       1.00800           0
     13204 TIP3     425      TP3      O        OW      -0.834000       16.0000           0
     13205 TIP3     425      TP3      H1       HW       0.417000       1.00800           0
     13206 TIP3     425      TP3      H2       HW       0.417000       1.00800           0
     13207 TIP3     426      TP3      O        OW      -0.834000       16.0000           0
     13208 TIP3     426      TP3      H1       HW       0.417000       1.00800           0
     13209 TIP3     426      TP3      H2       HW       0.417000       1.00800           0
     13210 TIP3     427      TP3      O        OW      -0.834000       16.0000           0
     13211 TIP3     427      TP3      H1       HW       0.417000       1.00800           0
     13212 TIP3     427      TP3      H2       HW       0.417000       1.00800           0
     13213 TIP3     428      TP3      O        OW      -0.834000       16.0000           0
     13214 TIP3     428      TP3      H1       HW       0.417000       1.00800           0
     13215 TIP3     428      TP3      H2       HW       0.417000       1.00800           0
     13216 TIP3     429      TP3      O        OW      -0.834000       16.0000           0
     13217 TIP3     429      TP3      H1       HW       0.417000       1.00800           0
     13218 TIP3     429      TP3      H2       HW       0.417000       1.00800           0
     13219 TIP3     430      TP3      O        OW      -0.834000       16.0000           0
     13220 TIP3     430      TP3      H1       HW       0.417000       1.00800           0
     13221 TIP3     430      TP3      H2       HW       0.417000       1.00800           0
     13222 TIP3     431      TP3      O        OW      -0.834000       16.0000           0
     13223 TIP3     431      TP3      H1       HW       0.417000       1.00800           0
     13224 TIP3     431      TP3      H2       HW       0.417000       1.00800           0
     13225 TIP3     432      TP3      O        OW      -0.834000       16.0000           0
     13226 TIP3     432      TP3      H1       HW       0.417000       1.00800           0
     13227 TIP3     432      TP3      H2       HW       0.417000       1.00800           0
     13228 TIP3     433      TP3      O        OW      -0.834000       16.0000           0
     13229 TIP3     433      TP3      H1       HW       0.417000       1.00800           0
     13230 TIP3     433      TP3      H2       HW       0.417000       1.00800           0
     13231 TIP3     434      TP3      O        OW      -0.834000       16.0000           0
     13232 TIP3     434      TP3      H1       HW       0.417000       1.00800           0
     13233 TIP3     434      TP3      H2       HW       0.417000       1.00800           0
     13234 TIP3     435      TP3      O        OW      -0.834000       16.0000           0
     13235 TIP3     435      TP3      H1       HW       0.417000       1.00800           0
     13236 TIP3     435      TP3      H2       HW       0.417000       1.00800           0
     13237 TIP3     436      TP3      O        OW      -0.834000       16.0000           0
     13238 TIP3     436      TP3      H1       HW       0.417000       1.00800           0
     13239 TIP3     436      TP3      H2       HW       0.417000       1.00800           0
     13240 TIP3     437      TP3      O        OW      -0.834000       16.0000           0
     13241 TIP3     437      TP3      H1       HW       0.417000       1.00800           0
     13242 TIP3     437      TP3      H2       HW       0.417000       1.00800           0
     13243 TIP3     438      TP3      O        OW      -0.834000       16.0000           0
     13244 TIP3     438      TP3      H1       HW       0.417000       1.00800           0
     13245 TIP3     438      TP3      H2       HW       0.417000       1.00800           0
     13246 TIP3     439      TP3      O        OW      -0.834000       16.0000           0
     13247 TIP3     439      TP3      H1       HW       0.417000       1.00800           0
     13248 TIP3     439      TP3      H2       HW       0.417000       1.00800           0
     13249 TIP3     440      TP3      O        OW      -0.834000       16.0000           0
     13250 TIP3     440      TP3      H1       HW       0.417000       1.00800           0
     13251 TIP3     440      TP3      H2       HW       0.417000       1.00800           0
     13252 TIP3     441      TP3      O        OW      -0.834000       16.0000           0
     13253 TIP3     441      TP3      H1       HW       0.417000       1.00800           0
     13254 TIP3     441      TP3      H2       HW       0.417000       1.00800           0
     13255 TIP3     442      TP3      O        OW      -0.834000       16.0000           0
     13256 TIP3     442      TP3      H1       HW       0.417000       1.00800           0
     13257 TIP3     442      TP3      H2       HW       0.417000       1.00800           0
     13258 TIP3     443      TP3      O        OW      -0.834000       16.0000           0
     13259 TIP3     443      TP3      H1       HW       0.417000       1.00800           0
     13260 TIP3     443      TP3      H2       HW       0.417000       1.00800           0
     13261 TIP3     444      TP3      O        OW      -0.834000       16.0000           0
     13262 TIP3     444      TP3      H1       HW       0.417000       1.00800           0
     13263 TIP3     444      TP3      H2       HW       0.417000       1.00800           0
     13264 TIP3     445      TP3      O        OW      -0.834000       16.0000           0
     13265 TIP3     445      TP3      H1       HW       0.417000       1.00800           0
     13266 TIP3     445      TP3      H2       HW       0.417000       1.00800           0
     13267 TIP3     446      TP3      O        OW      -0.834000       16.0000           0
     13268 TIP3     446      TP3      H1       HW       0.417000       1.00800           0
     13269 TIP3     446      TP3      H2       HW       0.417000       1.00800           0
     13270 TIP3     447      TP3      O        OW      -0.834000       16.0000           0
     13271 TIP3     447      TP3      H1       HW       0.417000       1.00800           0
     13272 TIP3     447      TP3      H2       HW       0.417000       1.00800           0
     13273 TIP3     448      TP3      O        OW      -0.834000       16.0000           0
     13274 TIP3     448      TP3      H1       HW       0.417000       1.00800           0
     13275 TIP3     448      TP3      H2       HW       0.417000       1.00800           0
     13276 TIP3     449      TP3      O        OW      -0.834000       16.0000           0
     13277 TIP3     449      TP3      H1       HW       0.417000       1.00800           0
     13278 TIP3     449      TP3      H2       HW       0.417000       1.00800           0
     13279 TIP3     450      TP3      O        OW      -0.834000       16.0000           0
     13280 TIP3     450      TP3      H1       HW       0.417000       1.00800           0
     13281 TIP3     450      TP3      H2       HW       0.417000       1.00800           0
     13282 TIP3     451      TP3      O        OW      -0.834000       16.0000           0
     13283 TIP3     451      TP3      H1       HW       0.417000       1.00800           0
     13284 TIP3     451      TP3      H2       HW       0.417000       1.00800           0
     13285 TIP3     452      TP3      O        OW      -0.834000       16.0000           0
     13286 TIP3     452      TP3      H1       HW       0.417000       1.00800           0
     13287 TIP3     452      TP3      H2       HW       0.417000       1.00800           0
     13288 TIP3     453      TP3      O        OW      -0.834000       16.0000           0
     13289 TIP3     453      TP3      H1       HW       0.417000       1.00800           0
     13290 TIP3     453      TP3      H2       HW       0.417000       1.00800           0
     13291 TIP3     454      TP3      O        OW      -0.834000       16.0000           0
     13292 TIP3     454      TP3      H1       HW       0.417000       1.00800           0
     13293 TIP3     454      TP3      H2       HW       0.417000       1.00800           0
     13294 TIP3     455      TP3      O        OW      -0.834000       16.0000           0
     13295 TIP3     455      TP3      H1       HW       0.417000       1.00800           0
     13296 TIP3     455      TP3      H2       HW       0.417000       1.00800           0
     13297 TIP3     456      TP3      O        OW      -0.834000       16.0000           0
     13298 TIP3     456      TP3      H1       HW       0.417000       1.00800           0
     13299 TIP3     456      TP3      H2       HW       0.417000       1.00800           0
     13300 TIP3     457      TP3      O        OW      -0.834000       16.0000           0
     13301 TIP3     457      TP3      H1       HW       0.417000       1.00800           0
     13302 TIP3     457      TP3      H2       HW       0.417000       1.00800           0
     13303 TIP3     458      TP3      O        OW      -0.834000       16.0000           0
     13304 TIP3     458      TP3      H1       HW       0.417000       1.00800           0
     13305 TIP3     458      TP3      H2       HW       0.417000       1.00800           0
     13306 TIP3     459      TP3      O        OW      -0.834000       16.0000           0
     13307 TIP3     459      TP3      H1       HW       0.417000       1.00800           0
     13308 TIP3     459      TP3      H2       HW       0.417000       1.00800           0
     13309 TIP3     460      TP3      O        OW      -0.834000       16.0000           0
     13310 TIP3     460      TP3      H1       HW       0.417000       1.00800           0
     13311 TIP3     460      TP3      H2       HW       0.417000       1.00800           0
     13312 TIP3     461      TP3      O        OW      -0.834000       16.0000           0
     13313 TIP3     461      TP3      H1       HW       0.417000       1.00800           0
     13314 TIP3     461      TP3      H2       HW       0.417000       1.00800           0
     13315 TIP3     462      TP3      O        OW      -0.834000       16.0000           0
     13316 TIP3     462      TP3      H1       HW       0.417000       1.00800           0
     13317 TIP3     462      TP3      H2       HW       0.417000       1.00800           0
     13318 TIP3     463      TP3      O        OW      -0.834000       16.0000           0
     13319 TIP3     463      TP3      H1       HW       0.417000       1.00800           0
     13320 TIP3     463      TP3      H2       HW       0.417000       1.00800           0
     13321 TIP3     464      TP3      O        OW      -0.834000       16.0000           0
     13322 TIP3     464      TP3      H1       HW       0.417000       1.00800           0
     13323 TIP3     464      TP3      H2       HW       0.417000       1.00800           0
     13324 TIP3     465      TP3      O        OW      -0.834000       16.0000           0
     13325 TIP3     465      TP3      H1       HW       0.417000       1.00800           0
     13326 TIP3     465      TP3      H2       HW       0.417000       1.00800           0
     13327 TIP3     466      TP3      O        OW      -0.834000       16.0000           0
     13328 TIP3     466      TP3      H1       HW       0.417000       1.00800           0
     13329 TIP3     466      TP3      H2       HW       0.417000       1.00800           0
     13330 TIP3     467      TP3      O        OW      -0.834000       16.0000           0
     13331 TIP3     467      TP3      H1       HW       0.417000       1.00800           0
     13332 TIP3     467      TP3      H2       HW       0.417000       1.00800           0
     13333 TIP3     468      TP3      O        OW      -0.834000       16.0000           0
     13334 TIP3     468      TP3      H1       HW       0.417000       1.00800           0
     13335 TIP3     468      TP3      H2       HW       0.417000       1.00800           0
     13336 TIP3     469      TP3      O        OW      -0.834000       16.0000           0
     13337 TIP3     469      TP3      H1       HW       0.417000       1.00800           0
     13338 TIP3     469      TP3      H2       HW       0.417000       1.00800           0
     13339 TIP3     470      TP3      O        OW      -0.834000       16.0000           0
     13340 TIP3     470      TP3      H1       HW       0.417000       1.00800           0
     13341 TIP3     470      TP3      H2       HW       0.417000       1.00800           0
     13342 TIP3     471      TP3      O        OW      -0.834000       16.0000           0
     13343 TIP3     471      TP3      H1       HW       0.417000       1.00800           0
     13344 TIP3     471      TP3      H2       HW       0.417000       1.00800           0
     13345 TIP3     472      TP3      O        OW      -0.834000       16.0000           0
     13346 TIP3     472      TP3      H1       HW       0.417000       1.00800           0
     13347 TIP3     472      TP3      H2       HW       0.417000       1.00800           0
     13348 TIP3     473      TP3      O        OW      -0.834000       16.0000           0
     13349 TIP3     473      TP3      H1       HW       0.417000       1.00800           0
     13350 TIP3     473      TP3      H2       HW       0.417000       1.00800           0
     13351 TIP3     474      TP3      O        OW      -0.834000       16.0000           0
     13352 TIP3     474      TP3      H1       HW       0.417000       1.00800           0
     13353 TIP3     474      TP3      H2       HW       0.417000       1.00800           0
     13354 TIP3     475      TP3      O        OW      -0.834000       16.0000           0
     13355 TIP3     475      TP3      H1       HW       0.417000       1.00800           0
     13356 TIP3     475      TP3      H2       HW       0.417000       1.00800           0
     13357 TIP3     476      TP3      O        OW      -0.834000       16.0000           0
     13358 TIP3     476      TP3      H1       HW       0.417000       1.00800           0
     13359 TIP3     476      TP3      H2       HW       0.417000       1.00800           0
     13360 TIP3     477      TP3      O        OW      -0.834000       16.0000           0
     13361 TIP3     477      TP3      H1       HW       0.417000       1.00800           0
     13362 TIP3     477      TP3      H2       HW       0.417000       1.00800           0
     13363 TIP3     478      TP3      O        OW      -0.834000       16.0000           0
     13364 TIP3     478      TP3      H1       HW       0.417000       1.00800           0
     13365 TIP3     478      TP3      H2       HW       0.417000       1.00800           0
     13366 TIP3     479      TP3      O        OW      -0.834000       16.0000           0
     13367 TIP3     479      TP3      H1       HW       0.417000       1.00800           0
     13368 TIP3     479      TP3      H2       HW       0.417000       1.00800           0
     13369 TIP3     480      TP3      O        OW      -0.834000       16.0000           0
     13370 TIP3     480      TP3      H1       HW       0.417000       1.00800           0
     13371 TIP3     480      TP3      H2       HW       0.417000       1.00800           0
     13372 TIP3     481      TP3      O        OW      -0.834000       16.0000           0
     13373 TIP3     481      TP3      H1       HW       0.417000       1.00800           0
     13374 TIP3     481      TP3      H2       HW       0.417000       1.00800           0
     13375 TIP3     482      TP3      O        OW      -0.834000       16.0000           0
     13376 TIP3     482      TP3      H1       HW       0.417000       1.00800           0
     13377 TIP3     482      TP3      H2       HW       0.417000       1.00800           0
     13378 TIP3     483      TP3      O        OW      -0.834000       16.0000           0
     13379 TIP3     483      TP3      H1       HW       0.417000       1.00800           0
     13380 TIP3     483      TP3      H2       HW       0.417000       1.00800           0
     13381 TIP3     484      TP3      O        OW      -0.834000       16.0000           0
     13382 TIP3     484      TP3      H1       HW       0.417000       1.00800           0
     13383 TIP3     484      TP3      H2       HW       0.417000       1.00800           0
     13384 TIP3     485      TP3      O        OW      -0.834000       16.0000           0
     13385 TIP3     485      TP3      H1       HW       0.417000       1.00800           0
     13386 TIP3     485      TP3      H2       HW       0.417000       1.00800           0
     13387 TIP3     486      TP3      O        OW      -0.834000       16.0000           0
     13388 TIP3     486      TP3      H1       HW       0.417000       1.00800           0
     13389 TIP3     486      TP3      H2       HW       0.417000       1.00800           0
     13390 TIP3     487      TP3      O        OW      -0.834000       16.0000           0
     13391 TIP3     487      TP3      H1       HW       0.417000       1.00800           0
     13392 TIP3     487      TP3      H2       HW       0.417000       1.00800           0
     13393 TIP3     488      TP3      O        OW      -0.834000       16.0000           0
     13394 TIP3     488      TP3      H1       HW       0.417000       1.00800           0
     13395 TIP3     488      TP3      H2       HW       0.417000       1.00800           0
     13396 TIP3     489      TP3      O        OW      -0.834000       16.0000           0
     13397 TIP3     489      TP3      H1       HW       0.417000       1.00800           0
     13398 TIP3     489      TP3      H2       HW       0.417000       1.00800           0
     13399 TIP3     490      TP3      O        OW      -0.834000       16.0000           0
     13400 TIP3     490      TP3      H1       HW       0.417000       1.00800           0
     13401 TIP3     490      TP3      H2       HW       0.417000       1.00800           0
     13402 TIP3     491      TP3      O        OW      -0.834000       16.0000           0
     13403 TIP3     491      TP3      H1       HW       0.417000       1.00800           0
     13404 TIP3     491      TP3      H2       HW       0.417000       1.00800           0
     13405 TIP3     492      TP3      O        OW      -0.834000       16.0000           0
     13406 TIP3     492      TP3      H1       HW       0.417000       1.00800           0
     13407 TIP3     492      TP3      H2       HW       0.417000       1.00800           0
     13408 TIP3     493      TP3      O        OW      -0.834000       16.0000           0
     13409 TIP3     493      TP3      H1       HW       0.417000       1.00800           0
     13410 TIP3     493      TP3      H2       HW       0.417000       1.00800           0
     13411 TIP3     494      TP3      O        OW      -0.834000       16.0000           0
     13412 TIP3     494      TP3      H1       HW       0.417000       1.00800           0
     13413 TIP3     494      TP3      H2       HW       0.417000       1.00800           0
     13414 TIP3     495      TP3      O        OW      -0.834000       16.0000           0
     13415 TIP3     495      TP3      H1       HW       0.417000       1.00800           0
     13416 TIP3     495      TP3      H2       HW       0.417000       1.00800           0
     13417 TIP3     496      TP3      O        OW      -0.834000       16.0000           0
     13418 TIP3     496      TP3      H1       HW       0.417000       1.00800           0
     13419 TIP3     496      TP3      H2       HW       0.417000       1.00800           0
     13420 TIP3     497      TP3      O        OW      -0.834000       16.0000           0
     13421 TIP3     497      TP3      H1       HW       0.417000       1.00800           0
     13422 TIP3     497      TP3      H2       HW       0.417000       1.00800           0
     13423 TIP3     498      TP3      O        OW      -0.834000       16.0000           0
     13424 TIP3     498      TP3      H1       HW       0.417000       1.00800           0
     13425 TIP3     498      TP3      H2       HW       0.417000       1.00800           0
     13426 TIP3     499      TP3      O        OW      -0.834000       16.0000           0
     13427 TIP3     499      TP3      H1       HW       0.417000       1.00800           0
     13428 TIP3     499      TP3      H2       HW       0.417000       1.00800           0
     13429 TIP3     500      TP3      O        OW      -0.834000       16.0000           0
     13430 TIP3     500      TP3      H1       HW       0.417000       1.00800           0
     13431 TIP3     500      TP3      H2       HW       0.417000       1.00800           0
     13432 TIP3     501      TP3      O        OW      -0.834000       16.0000           0
     13433 TIP3     501      TP3      H1       HW       0.417000       1.00800           0
     13434 TIP3     501      TP3      H2       HW       0.417000       1.00800           0
     13435 TIP3     502      TP3      O        OW      -0.834000       16.0000           0
     13436 TIP3     502      TP3      H1       HW       0.417000       1.00800           0
     13437 TIP3     502      TP3      H2       HW       0.417000       1.00800           0
     13438 TIP3     503      TP3      O        OW      -0.834000       16.0000           0
     13439 TIP3     503      TP3      H1       HW       0.417000       1.00800           0
     13440 TIP3     503      TP3      H2       HW       0.417000       1.00800           0
     13441 TIP3     504      TP3      O        OW      -0.834000       16.0000           0
     13442 TIP3     504      TP3      H1       HW       0.417000       1.00800           0
     13443 TIP3     504      TP3      H2       HW       0.417000       1.00800           0
     13444 TIP3     505      TP3      O        OW      -0.834000       16.0000           0
     13445 TIP3     505      TP3      H1       HW       0.417000       1.00800           0
     13446 TIP3     505      TP3      H2       HW       0.417000       1.00800           0
     13447 TIP3     506      TP3      O        OW      -0.834000       16.0000           0
     13448 TIP3     506      TP3      H1       HW       0.417000       1.00800           0
     13449 TIP3     506      TP3      H2       HW       0.417000       1.00800           0
     13450 TIP3     507      TP3      O        OW      -0.834000       16.0000           0
     13451 TIP3     507      TP3      H1       HW       0.417000       1.00800           0
     13452 TIP3     507      TP3      H2       HW       0.417000       1.00800           0
     13453 TIP3     508      TP3      O        OW      -0.834000       16.0000           0
     13454 TIP3     508      TP3      H1       HW       0.417000       1.00800           0
     13455 TIP3     508      TP3      H2       HW       0.417000       1.00800           0
     13456 TIP3     509      TP3      O        OW      -0.834000       16.0000           0
     13457 TIP3     509      TP3      H1       HW       0.417000       1.00800           0
     13458 TIP3     509      TP3      H2       HW       0.417000       1.00800           0
     13459 TIP3     510      TP3      O        OW      -0.834000       16.0000           0
     13460 TIP3     510      TP3      H1       HW       0.417000       1.00800           0
     13461 TIP3     510      TP3      H2       HW       0.417000       1.00800           0
     13462 TIP3     511      TP3      O        OW      -0.834000       16.0000           0
     13463 TIP3     511      TP3      H1       HW       0.417000       1.00800           0
     13464 TIP3     511      TP3      H2       HW       0.417000       1.00800           0
     13465 TIP3     512      TP3      O        OW      -0.834000       16.0000           0
     13466 TIP3     512      TP3      H1       HW       0.417000       1.00800           0
     13467 TIP3     512      TP3      H2       HW       0.417000       1.00800           0
     13468 TIP3     513      TP3      O        OW      -0.834000       16.0000           0
     13469 TIP3     513      TP3      H1       HW       0.417000       1.00800           0
     13470 TIP3     513      TP3      H2       HW       0.417000       1.00800           0
     13471 TIP3     514      TP3      O        OW      -0.834000       16.0000           0
     13472 TIP3     514      TP3      H1       HW       0.417000       1.00800           0
     13473 TIP3     514      TP3      H2       HW       0.417000       1.00800           0
     13474 TIP3     515      TP3      O        OW      -0.834000       16.0000           0
     13475 TIP3     515      TP3      H1       HW       0.417000       1.00800           0
     13476 TIP3     515      TP3      H2       HW       0.417000       1.00800           0
     13477 TIP3     516      TP3      O        OW      -0.834000       16.0000           0
     13478 TIP3     516      TP3      H1       HW       0.417000       1.00800           0
     13479 TIP3     516      TP3      H2       HW       0.417000       1.00800           0
     13480 TIP3     517      TP3      O        OW      -0.834000       16.0000           0
     13481 TIP3     517      TP3      H1       HW       0.417000       1.00800           0
     13482 TIP3     517      TP3      H2       HW       0.417000       1.00800           0
     13483 TIP3     518      TP3      O        OW      -0.834000       16.0000           0
     13484 TIP3     518      TP3      H1       HW       0.417000       1.00800           0
     13485 TIP3     518      TP3      H2       HW       0.417000       1.00800           0
     13486 TIP3     519      TP3      O        OW      -0.834000       16.0000           0
     13487 TIP3     519      TP3      H1       HW       0.417000       1.00800           0
     13488 TIP3     519      TP3      H2       HW       0.417000       1.00800           0
     13489 TIP3     520      TP3      O        OW      -0.834000       16.0000           0
     13490 TIP3     520      TP3      H1       HW       0.417000       1.00800           0
     13491 TIP3     520      TP3      H2       HW       0.417000       1.00800           0
     13492 TIP3     521      TP3      O        OW      -0.834000       16.0000           0
     13493 TIP3     521      TP3      H1       HW       0.417000       1.00800           0
     13494 TIP3     521      TP3      H2       HW       0.417000       1.00800           0
     13495 TIP3     522      TP3      O        OW      -0.834000       16.0000           0
     13496 TIP3     522      TP3      H1       HW       0.417000       1.00800           0
     13497 TIP3     522      TP3      H2       HW       0.417000       1.00800           0
     13498 TIP3     523      TP3      O        OW      -0.834000       16.0000           0
     13499 TIP3     523      TP3      H1       HW       0.417000       1.00800           0
     13500 TIP3     523      TP3      H2       HW       0.417000       1.00800           0
     13501 TIP3     524      TP3      O        OW      -0.834000       16.0000           0
     13502 TIP3     524      TP3      H1       HW       0.417000       1.00800           0
     13503 TIP3     524      TP3      H2       HW       0.417000       1.00800           0
     13504 TIP3     525      TP3      O        OW      -0.834000       16.0000           0
     13505 TIP3     525      TP3      H1       HW       0.417000       1.00800           0
     13506 TIP3     525      TP3      H2       HW       0.417000       1.00800           0
     13507 TIP3     526      TP3      O        OW      -0.834000       16.0000           0
     13508 TIP3     526      TP3      H1       HW       0.417000       1.00800           0
     13509 TIP3     526      TP3      H2       HW       0.417000       1.00800           0
     13510 TIP3     527      TP3      O        OW      -0.834000       16.0000           0
     13511 TIP3     527      TP3      H1       HW       0.417000       1.00800           0
     13512 TIP3     527      TP3      H2       HW       0.417000       1.00800           0
     13513 TIP3     528      TP3      O        OW      -0.834000       16.0000           0
     13514 TIP3     528      TP3      H1       HW       0.417000       1.00800           0
     13515 TIP3     528      TP3      H2       HW       0.417000       1.00800           0
     13516 TIP3     529      TP3      O        OW      -0.834000       16.0000           0
     13517 TIP3     529      TP3      H1       HW       0.417000       1.00800           0
     13518 TIP3     529      TP3      H2       HW       0.417000       1.00800           0
     13519 TIP3     530      TP3      O        OW      -0.834000       16.0000           0
     13520 TIP3     530      TP3      H1       HW       0.417000       1.00800           0
     13521 TIP3     530      TP3      H2       HW       0.417000       1.00800           0
     13522 TIP3     531      TP3      O        OW      -0.834000       16.0000           0
     13523 TIP3     531      TP3      H1       HW       0.417000       1.00800           0
     13524 TIP3     531      TP3      H2       HW       0.417000       1.00800           0
     13525 TIP3     532      TP3      O        OW      -0.834000       16.0000           0
     13526 TIP3     532      TP3      H1       HW       0.417000       1.00800           0
     13527 TIP3     532      TP3      H2       HW       0.417000       1.00800           0
     13528 TIP3     533      TP3      O        OW      -0.834000       16.0000           0
     13529 TIP3     533      TP3      H1       HW       0.417000       1.00800           0
     13530 TIP3     533      TP3      H2       HW       0.417000       1.00800           0
     13531 TIP3     534      TP3      O        OW      -0.834000       16.0000           0
     13532 TIP3     534      TP3      H1       HW       0.417000       1.00800           0
     13533 TIP3     534      TP3      H2       HW       0.417000       1.00800           0
     13534 TIP3     535      TP3      O        OW      -0.834000       16.0000           0
     13535 TIP3     535      TP3      H1       HW       0.417000       1.00800           0
     13536 TIP3     535      TP3      H2       HW       0.417000       1.00800           0
     13537 TIP3     536      TP3      O        OW      -0.834000       16.0000           0
     13538 TIP3     536      TP3      H1       HW       0.417000       1.00800           0
     13539 TIP3     536      TP3      H2       HW       0.417000       1.00800           0
     13540 TIP3     537      TP3      O        OW      -0.834000       16.0000           0
     13541 TIP3     537      TP3      H1       HW       0.417000       1.00800           0
     13542 TIP3     537      TP3      H2       HW       0.417000       1.00800           0
     13543 TIP3     538      TP3      O        OW      -0.834000       16.0000           0
     13544 TIP3     538      TP3      H1       HW       0.417000       1.00800           0
     13545 TIP3     538      TP3      H2       HW       0.417000       1.00800           0
     13546 TIP3     539      TP3      O        OW      -0.834000       16.0000           0
     13547 TIP3     539      TP3      H1       HW       0.417000       1.00800           0
     13548 TIP3     539      TP3      H2       HW       0.417000       1.00800           0
     13549 TIP3     540      TP3      O        OW      -0.834000       16.0000           0
     13550 TIP3     540      TP3      H1       HW       0.417000       1.00800           0
     13551 TIP3     540      TP3      H2       HW       0.417000       1.00800           0
     13552 TIP3     541      TP3      O        OW      -0.834000       16.0000           0
     13553 TIP3     541      TP3      H1       HW       0.417000       1.00800           0
     13554 TIP3     541      TP3      H2       HW       0.417000       1.00800           0
     13555 TIP3     542      TP3      O        OW      -0.834000       16.0000           0
     13556 TIP3     542      TP3      H1       HW       0.417000       1.00800           0
     13557 TIP3     542      TP3      H2       HW       0.417000       1.00800           0
     13558 TIP3     543      TP3      O        OW      -0.834000       16.0000           0
     13559 TIP3     543      TP3      H1       HW       0.417000       1.00800           0
     13560 TIP3     543      TP3      H2       HW       0.417000       1.00800           0
     13561 TIP3     544      TP3      O        OW      -0.834000       16.0000           0
     13562 TIP3     544      TP3      H1       HW       0.417000       1.00800           0
     13563 TIP3     544      TP3      H2       HW       0.417000       1.00800           0
     13564 TIP3     545      TP3      O        OW      -0.834000       16.0000           0
     13565 TIP3     545      TP3      H1       HW       0.417000       1.00800           0
     13566 TIP3     545      TP3      H2       HW       0.417000       1.00800           0
     13567 TIP3     546      TP3      O        OW      -0.834000       16.0000           0
     13568 TIP3     546      TP3      H1       HW       0.417000       1.00800           0
     13569 TIP3     546      TP3      H2       HW       0.417000       1.00800           0
     13570 TIP3     547      TP3      O        OW      -0.834000       16.0000           0
     13571 TIP3     547      TP3      H1       HW       0.417000       1.00800           0
     13572 TIP3     547      TP3      H2       HW       0.417000       1.00800           0
     13573 TIP3     548      TP3      O        OW      -0.834000       16.0000           0
     13574 TIP3     548      TP3      H1       HW       0.417000       1.00800           0
     13575 TIP3     548      TP3      H2       HW       0.417000       1.00800           0
     13576 TIP3     549      TP3      O        OW      -0.834000       16.0000           0
     13577 TIP3     549      TP3      H1       HW       0.417000       1.00800           0
     13578 TIP3     549      TP3      H2       HW       0.417000       1.00800           0
     13579 TIP3     550      TP3      O        OW      -0.834000       16.0000           0
     13580 TIP3     550      TP3      H1       HW       0.417000       1.00800           0
     13581 TIP3     550      TP3      H2       HW       0.417000       1.00800           0
     13582 TIP3     551      TP3      O        OW      -0.834000       16.0000           0
     13583 TIP3     551      TP3      H1       HW       0.417000       1.00800           0
     13584 TIP3     551      TP3      H2       HW       0.417000       1.00800           0
     13585 TIP3     552      TP3      O        OW      -0.834000       16.0000           0
     13586 TIP3     552      TP3      H1       HW       0.417000       1.00800           0
     13587 TIP3     552      TP3      H2       HW       0.417000       1.00800           0
     13588 TIP3     553      TP3      O        OW      -0.834000       16.0000           0
     13589 TIP3     553      TP3      H1       HW       0.417000       1.00800           0
     13590 TIP3     553      TP3      H2       HW       0.417000       1.00800           0
     13591 TIP3     554      TP3      O        OW      -0.834000       16.0000           0
     13592 TIP3     554      TP3      H1       HW       0.417000       1.00800           0
     13593 TIP3     554      TP3      H2       HW       0.417000       1.00800           0
     13594 TIP3     555      TP3      O        OW      -0.834000       16.0000           0
     13595 TIP3     555      TP3      H1       HW       0.417000       1.00800           0
     13596 TIP3     555      TP3      H2       HW       0.417000       1.00800           0
     13597 TIP3     556      TP3      O        OW      -0.834000       16.0000           0
     13598 TIP3     556      TP3      H1       HW       0.417000       1.00800           0
     13599 TIP3     556      TP3      H2       HW       0.417000       1.00800           0
     13600 TIP3     557      TP3      O        OW      -0.834000       16.0000           0
     13601 TIP3     557      TP3      H1       HW       0.417000       1.00800           0
     13602 TIP3     557      TP3      H2       HW       0.417000       1.00800           0
     13603 TIP3     558      TP3      O        OW      -0.834000       16.0000           0
     13604 TIP3     558      TP3      H1       HW       0.417000       1.00800           0
     13605 TIP3     558      TP3      H2       HW       0.417000       1.00800           0
     13606 TIP3     559      TP3      O        OW      -0.834000       16.0000           0
     13607 TIP3     559      TP3      H1       HW       0.417000       1.00800           0
     13608 TIP3     559      TP3      H2       HW       0.417000       1.00800           0
     13609 TIP3     560      TP3      O        OW      -0.834000       16.0000           0
     13610 TIP3     560      TP3      H1       HW       0.417000       1.00800           0
     13611 TIP3     560      TP3      H2       HW       0.417000       1.00800           0
     13612 TIP3     561      TP3      O        OW      -0.834000       16.0000           0
     13613 TIP3     561      TP3      H1       HW       0.417000       1.00800           0
     13614 TIP3     561      TP3      H2       HW       0.417000       1.00800           0
     13615 TIP3     562      TP3      O        OW      -0.834000       16.0000           0
     13616 TIP3     562      TP3      H1       HW       0.417000       1.00800           0
     13617 TIP3     562      TP3      H2       HW       0.417000       1.00800           0
     13618 TIP3     563      TP3      O        OW      -0.834000       16.0000           0
     13619 TIP3     563      TP3      H1       HW       0.417000       1.00800           0
     13620 TIP3     563      TP3      H2       HW       0.417000       1.00800           0
     13621 TIP3     564      TP3      O        OW      -0.834000       16.0000           0
     13622 TIP3     564      TP3      H1       HW       0.417000       1.00800           0
     13623 TIP3     564      TP3      H2       HW       0.417000       1.00800           0
     13624 TIP3     565      TP3      O        OW      -0.834000       16.0000           0
     13625 TIP3     565      TP3      H1       HW       0.417000       1.00800           0
     13626 TIP3     565      TP3      H2       HW       0.417000       1.00800           0
     13627 TIP3     566      TP3      O        OW      -0.834000       16.0000           0
     13628 TIP3     566      TP3      H1       HW       0.417000       1.00800           0
     13629 TIP3     566      TP3      H2       HW       0.417000       1.00800           0
     13630 TIP3     567      TP3      O        OW      -0.834000       16.0000           0
     13631 TIP3     567      TP3      H1       HW       0.417000       1.00800           0
     13632 TIP3     567      TP3      H2       HW       0.417000       1.00800           0
     13633 TIP3     568      TP3      O        OW      -0.834000       16.0000           0
     13634 TIP3     568      TP3      H1       HW       0.417000       1.00800           0
     13635 TIP3     568      TP3      H2       HW       0.417000       1.00800           0
     13636 TIP3     569      TP3      O        OW      -0.834000       16.0000           0
     13637 TIP3     569      TP3      H1       HW       0.417000       1.00800           0
     13638 TIP3     569      TP3      H2       HW       0.417000       1.00800           0
     13639 TIP3     570      TP3      O        OW      -0.834000       16.0000           0
     13640 TIP3     570      TP3      H1       HW       0.417000       1.00800           0
     13641 TIP3     570      TP3      H2       HW       0.417000       1.00800           0
     13642 TIP3     571      TP3      O        OW      -0.834000       16.0000           0
     13643 TIP3     571      TP3      H1       HW       0.417000       1.00800           0
     13644 TIP3     571      TP3      H2       HW       0.417000       1.00800           0
     13645 TIP3     572      TP3      O        OW      -0.834000       16.0000           0
     13646 TIP3     572      TP3      H1       HW       0.417000       1.00800           0
     13647 TIP3     572      TP3      H2       HW       0.417000       1.00800           0
     13648 TIP3     573      TP3      O        OW      -0.834000       16.0000           0
     13649 TIP3     573      TP3      H1       HW       0.417000       1.00800           0
     13650 TIP3     573      TP3      H2       HW       0.417000       1.00800           0
     13651 TIP3     574      TP3      O        OW      -0.834000       16.0000           0
     13652 TIP3     574      TP3      H1       HW       0.417000       1.00800           0
     13653 TIP3     574      TP3      H2       HW       0.417000       1.00800           0
     13654 TIP3     575      TP3      O        OW      -0.834000       16.0000           0
     13655 TIP3     575      TP3      H1       HW       0.417000       1.00800           0
     13656 TIP3     575      TP3      H2       HW       0.417000       1.00800           0
     13657 TIP3     576      TP3      O        OW      -0.834000       16.0000           0
     13658 TIP3     576      TP3      H1       HW       0.417000       1.00800           0
     13659 TIP3     576      TP3      H2       HW       0.417000       1.00800           0
     13660 TIP3     577      TP3      O        OW      -0.834000       16.0000           0
     13661 TIP3     577      TP3      H1       HW       0.417000       1.00800           0
     13662 TIP3     577      TP3      H2       HW       0.417000       1.00800           0
     13663 TIP3     578      TP3      O        OW      -0.834000       16.0000           0
     13664 TIP3     578      TP3      H1       HW       0.417000       1.00800           0
     13665 TIP3     578      TP3      H2       HW       0.417000       1.00800           0
     13666 TIP3     579      TP3      O        OW      -0.834000       16.0000           0
     13667 TIP3     579      TP3      H1       HW       0.417000       1.00800           0
     13668 TIP3     579      TP3      H2       HW       0.417000       1.00800           0
     13669 TIP3     580      TP3      O        OW      -0.834000       16.0000           0
     13670 TIP3     580      TP3      H1       HW       0.417000       1.00800           0
     13671 TIP3     580      TP3      H2       HW       0.417000       1.00800           0
     13672 TIP3     581      TP3      O        OW      -0.834000       16.0000           0
     13673 TIP3     581      TP3      H1       HW       0.417000       1.00800           0
     13674 TIP3     581      TP3      H2       HW       0.417000       1.00800           0
     13675 TIP3     582      TP3      O        OW      -0.834000       16.0000           0
     13676 TIP3     582      TP3      H1       HW       0.417000       1.00800           0
     13677 TIP3     582      TP3      H2       HW       0.417000       1.00800           0
     13678 TIP3     583      TP3      O        OW      -0.834000       16.0000           0
     13679 TIP3     583      TP3      H1       HW       0.417000       1.00800           0
     13680 TIP3     583      TP3      H2       HW       0.417000       1.00800           0
     13681 TIP3     584      TP3      O        OW      -0.834000       16.0000           0
     13682 TIP3     584      TP3      H1       HW       0.417000       1.00800           0
     13683 TIP3     584      TP3      H2       HW       0.417000       1.00800           0
     13684 TIP3     585      TP3      O        OW      -0.834000       16.0000           0
     13685 TIP3     585      TP3      H1       HW       0.417000       1.00800           0
     13686 TIP3     585      TP3      H2       HW       0.417000       1.00800           0
     13687 TIP3     586      TP3      O        OW      -0.834000       16.0000           0
     13688 TIP3     586      TP3      H1       HW       0.417000       1.00800           0
     13689 TIP3     586      TP3      H2       HW       0.417000       1.00800           0
     13690 TIP3     587      TP3      O        OW      -0.834000       16.0000           0
     13691 TIP3     587      TP3      H1       HW       0.417000       1.00800           0
     13692 TIP3     587      TP3      H2       HW       0.417000       1.00800           0
     13693 TIP3     588      TP3      O        OW      -0.834000       16.0000           0
     13694 TIP3     588      TP3      H1       HW       0.417000       1.00800           0
     13695 TIP3     588      TP3      H2       HW       0.417000       1.00800           0
     13696 TIP3     589      TP3      O        OW      -0.834000       16.0000           0
     13697 TIP3     589      TP3      H1       HW       0.417000       1.00800           0
     13698 TIP3     589      TP3      H2       HW       0.417000       1.00800           0
     13699 TIP3     590      TP3      O        OW      -0.834000       16.0000           0
     13700 TIP3     590      TP3      H1       HW       0.417000       1.00800           0
     13701 TIP3     590      TP3      H2       HW       0.417000       1.00800           0
     13702 TIP3     591      TP3      O        OW      -0.834000       16.0000           0
     13703 TIP3     591      TP3      H1       HW       0.417000       1.00800           0
     13704 TIP3     591      TP3      H2       HW       0.417000       1.00800           0
     13705 TIP3     592      TP3      O        OW      -0.834000       16.0000           0
     13706 TIP3     592      TP3      H1       HW       0.417000       1.00800           0
     13707 TIP3     592      TP3      H2       HW       0.417000       1.00800           0
     13708 TIP3     593      TP3      O        OW      -0.834000       16.0000           0
     13709 TIP3     593      TP3      H1       HW       0.417000       1.00800           0
     13710 TIP3     593      TP3      H2       HW       0.417000       1.00800           0
     13711 TIP3     594      TP3      O        OW      -0.834000       16.0000           0
     13712 TIP3     594      TP3      H1       HW       0.417000       1.00800           0
     13713 TIP3     594      TP3      H2       HW       0.417000       1.00800           0
     13714 TIP3     595      TP3      O        OW      -0.834000       16.0000           0
     13715 TIP3     595      TP3      H1       HW       0.417000       1.00800           0
     13716 TIP3     595      TP3      H2       HW       0.417000       1.00800           0
     13717 TIP3     596      TP3      O        OW      -0.834000       16.0000           0
     13718 TIP3     596      TP3      H1       HW       0.417000       1.00800           0
     13719 TIP3     596      TP3      H2       HW       0.417000       1.00800           0
     13720 TIP3     597      TP3      O        OW      -0.834000       16.0000           0
     13721 TIP3     597      TP3      H1       HW       0.417000       1.00800           0
     13722 TIP3     597      TP3      H2       HW       0.417000       1.00800           0
     13723 TIP3     598      TP3      O        OW      -0.834000       16.0000           0
     13724 TIP3     598      TP3      H1       HW       0.417000       1.00800           0
     13725 TIP3     598      TP3      H2       HW       0.417000       1.00800           0
     13726 TIP3     599      TP3      O        OW      -0.834000       16.0000           0
     13727 TIP3     599      TP3      H1       HW       0.417000       1.00800           0
     13728 TIP3     599      TP3      H2       HW       0.417000       1.00800           0
     13729 TIP3     600      TP3      O        OW      -0.834000       16.0000           0
     13730 TIP3     600      TP3      H1       HW       0.417000       1.00800           0
     13731 TIP3     600      TP3      H2       HW       0.417000       1.00800           0
     13732 TIP3     601      TP3      O        OW      -0.834000       16.0000           0
     13733 TIP3     601      TP3      H1       HW       0.417000       1.00800           0
     13734 TIP3     601      TP3      H2       HW       0.417000       1.00800           0
     13735 TIP3     602      TP3      O        OW      -0.834000       16.0000           0
     13736 TIP3     602      TP3      H1       HW       0.417000       1.00800           0
     13737 TIP3     602      TP3      H2       HW       0.417000       1.00800           0
     13738 TIP3     603      TP3      O        OW      -0.834000       16.0000           0
     13739 TIP3     603      TP3      H1       HW       0.417000       1.00800           0
     13740 TIP3     603      TP3      H2       HW       0.417000       1.00800           0
     13741 TIP3     604      TP3      O        OW      -0.834000       16.0000           0
     13742 TIP3     604      TP3      H1       HW       0.417000       1.00800           0
     13743 TIP3     604      TP3      H2       HW       0.417000       1.00800           0
     13744 TIP3     605      TP3      O        OW      -0.834000       16.0000           0
     13745 TIP3     605      TP3      H1       HW       0.417000       1.00800           0
     13746 TIP3     605      TP3      H2       HW       0.417000       1.00800           0
     13747 TIP3     606      TP3      O        OW      -0.834000       16.0000           0
     13748 TIP3     606      TP3      H1       HW       0.417000       1.00800           0
     13749 TIP3     606      TP3      H2       HW       0.417000       1.00800           0
     13750 TIP3     607      TP3      O        OW      -0.834000       16.0000           0
     13751 TIP3     607      TP3      H1       HW       0.417000       1.00800           0
     13752 TIP3     607      TP3      H2       HW       0.417000       1.00800           0
     13753 TIP3     608      TP3      O        OW      -0.834000       16.0000           0
     13754 TIP3     608      TP3      H1       HW       0.417000       1.00800           0
     13755 TIP3     608      TP3      H2       HW       0.417000       1.00800           0
     13756 TIP3     609      TP3      O        OW      -0.834000       16.0000           0
     13757 TIP3     609      TP3      H1       HW       0.417000       1.00800           0
     13758 TIP3     609      TP3      H2       HW       0.417000       1.00800           0
     13759 TIP3     610      TP3      O        OW      -0.834000       16.0000           0
     13760 TIP3     610      TP3      H1       HW       0.417000       1.00800           0
     13761 TIP3     610      TP3      H2       HW       0.417000       1.00800           0
     13762 TIP3     611      TP3      O        OW      -0.834000       16.0000           0
     13763 TIP3     611      TP3      H1       HW       0.417000       1.00800           0
     13764 TIP3     611      TP3      H2       HW       0.417000       1.00800           0
     13765 TIP3     612      TP3      O        OW      -0.834000       16.0000           0
     13766 TIP3     612      TP3      H1       HW       0.417000       1.00800           0
     13767 TIP3     612      TP3      H2       HW       0.417000       1.00800           0
     13768 TIP3     613      TP3      O        OW      -0.834000       16.0000           0
     13769 TIP3     613      TP3      H1       HW       0.417000       1.00800           0
     13770 TIP3     613      TP3      H2       HW       0.417000       1.00800           0
     13771 TIP3     614      TP3      O        OW      -0.834000       16.0000           0
     13772 TIP3     614      TP3      H1       HW       0.417000       1.00800           0
     13773 TIP3     614      TP3      H2       HW       0.417000       1.00800           0
     13774 TIP3     615      TP3      O        OW      -0.834000       16.0000           0
     13775 TIP3     615      TP3      H1       HW       0.417000       1.00800           0
     13776 TIP3     615      TP3      H2       HW       0.417000       1.00800           0
     13777 TIP3     616      TP3      O        OW      -0.834000       16.0000           0
     13778 TIP3     616      TP3      H1       HW       0.417000       1.00800           0
     13779 TIP3     616      TP3      H2       HW       0.417000       1.00800           0
     13780 TIP3     617      TP3      O        OW      -0.834000       16.0000           0
     13781 TIP3     617      TP3      H1       HW       0.417000       1.00800           0
     13782 TIP3     617      TP3      H2       HW       0.417000       1.00800           0
     13783 TIP3     618      TP3      O        OW      -0.834000       16.0000           0
     13784 TIP3     618      TP3      H1       HW       0.417000       1.00800           0
     13785 TIP3     618      TP3      H2       HW       0.417000       1.00800           0
     13786 TIP3     619      TP3      O        OW      -0.834000       16.0000           0
     13787 TIP3     619      TP3      H1       HW       0.417000       1.00800           0
     13788 TIP3     619      TP3      H2       HW       0.417000       1.00800           0
     13789 TIP3     620      TP3      O        OW      -0.834000       16.0000           0
     13790 TIP3     620      TP3      H1       HW       0.417000       1.00800           0
     13791 TIP3     620      TP3      H2       HW       0.417000       1.00800           0
     13792 TIP3     621      TP3      O        OW      -0.834000       16.0000           0
     13793 TIP3     621      TP3      H1       HW       0.417000       1.00800           0
     13794 TIP3     621      TP3      H2       HW       0.417000       1.00800           0
     13795 TIP3     622      TP3      O        OW      -0.834000       16.0000           0
     13796 TIP3     622      TP3      H1       HW       0.417000       1.00800           0
     13797 TIP3     622      TP3      H2       HW       0.417000       1.00800           0
     13798 TIP3     623      TP3      O        OW      -0.834000       16.0000           0
     13799 TIP3     623      TP3      H1       HW       0.417000       1.00800           0
     13800 TIP3     623      TP3      H2       HW       0.417000       1.00800           0
     13801 TIP3     624      TP3      O        OW      -0.834000       16.0000           0
     13802 TIP3     624      TP3      H1       HW       0.417000       1.00800           0
     13803 TIP3     624      TP3      H2       HW       0.417000       1.00800           0
     13804 TIP3     625      TP3      O        OW      -0.834000       16.0000           0
     13805 TIP3     625      TP3      H1       HW       0.417000       1.00800           0
     13806 TIP3     625      TP3      H2       HW       0.417000       1.00800           0
     13807 TIP3     626      TP3      O        OW      -0.834000       16.0000           0
     13808 TIP3     626      TP3      H1       HW       0.417000       1.00800           0
     13809 TIP3     626      TP3      H2       HW       0.417000       1.00800           0
     13810 TIP3     627      TP3      O        OW      -0.834000       16.0000           0
     13811 TIP3     627      TP3      H1       HW       0.417000       1.00800           0
     13812 TIP3     627      TP3      H2       HW       0.417000       1.00800           0
     13813 TIP3     628      TP3      O        OW      -0.834000       16.0000           0
     13814 TIP3     628      TP3      H1       HW       0.417000       1.00800           0
     13815 TIP3     628      TP3      H2       HW       0.417000       1.00800           0
     13816 TIP3     629      TP3      O        OW      -0.834000       16.0000           0
     13817 TIP3     629      TP3      H1       HW       0.417000       1.00800           0
     13818 TIP3     629      TP3      H2       HW       0.417000       1.00800           0
     13819 TIP3     630      TP3      O        OW      -0.834000       16.0000           0
     13820 TIP3     630      TP3      H1       HW       0.417000       1.00800           0
     13821 TIP3     630      TP3      H2       HW       0.417000       1.00800           0
     13822 TIP3     631      TP3      O        OW      -0.834000       16.0000           0
     13823 TIP3     631      TP3      H1       HW       0.417000       1.00800           0
     13824 TIP3     631      TP3      H2       HW       0.417000       1.00800           0
     13825 TIP3     632      TP3      O        OW      -0.834000       16.0000           0
     13826 TIP3     632      TP3      H1       HW       0.417000       1.00800           0
     13827 TIP3     632      TP3      H2       HW       0.417000       1.00800           0
     13828 TIP3     633      TP3      O        OW      -0.834000       16.0000           0
     13829 TIP3     633      TP3      H1       HW       0.417000       1.00800           0
     13830 TIP3     633      TP3      H2       HW       0.417000       1.00800           0
     13831 TIP3     634      TP3      O        OW      -0.834000       16.0000           0
     13832 TIP3     634      TP3      H1       HW       0.417000       1.00800           0
     13833 TIP3     634      TP3      H2       HW       0.417000       1.00800           0
     13834 TIP3     635      TP3      O        OW      -0.834000       16.0000           0
     13835 TIP3     635      TP3      H1       HW       0.417000       1.00800           0
     13836 TIP3     635      TP3      H2       HW       0.417000       1.00800           0
     13837 TIP3     636      TP3      O        OW      -0.834000       16.0000           0
     13838 TIP3     636      TP3      H1       HW       0.417000       1.00800           0
     13839 TIP3     636      TP3      H2       HW       0.417000       1.00800           0
     13840 TIP3     637      TP3      O        OW      -0.834000       16.0000           0
     13841 TIP3     637      TP3      H1       HW       0.417000       1.00800           0
     13842 TIP3     637      TP3      H2       HW       0.417000       1.00800           0
     13843 TIP3     638      TP3      O        OW      -0.834000       16.0000           0
     13844 TIP3     638      TP3      H1       HW       0.417000       1.00800           0
     13845 TIP3     638      TP3      H2       HW       0.417000       1.00800           0
     13846 TIP3     639      TP3      O        OW      -0.834000       16.0000           0
     13847 TIP3     639      TP3      H1       HW       0.417000       1.00800           0
     13848 TIP3     639      TP3      H2       HW       0.417000       1.00800           0
     13849 TIP3     640      TP3      O        OW      -0.834000       16.0000           0
     13850 TIP3     640      TP3      H1       HW       0.417000       1.00800           0
     13851 TIP3     640      TP3      H2       HW       0.417000       1.00800           0
     13852 TIP3     641      TP3      O        OW      -0.834000       16.0000           0
     13853 TIP3     641      TP3      H1       HW       0.417000       1.00800           0
     13854 TIP3     641      TP3      H2       HW       0.417000       1.00800           0
     13855 TIP3     642      TP3      O        OW      -0.834000       16.0000           0
     13856 TIP3     642      TP3      H1       HW       0.417000       1.00800           0
     13857 TIP3     642      TP3      H2       HW       0.417000       1.00800           0
     13858 TIP3     643      TP3      O        OW      -0.834000       16.0000           0
     13859 TIP3     643      TP3      H1       HW       0.417000       1.00800           0
     13860 TIP3     643      TP3      H2       HW       0.417000       1.00800           0
     13861 TIP3     644      TP3      O        OW      -0.834000       16.0000           0
     13862 TIP3     644      TP3      H1       HW       0.417000       1.00800           0
     13863 TIP3     644      TP3      H2       HW       0.417000       1.00800           0
     13864 TIP3     645      TP3      O        OW      -0.834000       16.0000           0
     13865 TIP3     645      TP3      H1       HW       0.417000       1.00800           0
     13866 TIP3     645      TP3      H2       HW       0.417000       1.00800           0
     13867 TIP3     646      TP3      O        OW      -0.834000       16.0000           0
     13868 TIP3     646      TP3      H1       HW       0.417000       1.00800           0
     13869 TIP3     646      TP3      H2       HW       0.417000       1.00800           0
     13870 TIP3     647      TP3      O        OW      -0.834000       16.0000           0
     13871 TIP3     647      TP3      H1       HW       0.417000       1.00800           0
     13872 TIP3     647      TP3      H2       HW       0.417000       1.00800           0
     13873 TIP3     648      TP3      O        OW      -0.834000       16.0000           0
     13874 TIP3     648      TP3      H1       HW       0.417000       1.00800           0
     13875 TIP3     648      TP3      H2       HW       0.417000       1.00800           0
     13876 TIP3     649      TP3      O        OW      -0.834000       16.0000           0
     13877 TIP3     649      TP3      H1       HW       0.417000       1.00800           0
     13878 TIP3     649      TP3      H2       HW       0.417000       1.00800           0
     13879 TIP3     650      TP3      O        OW      -0.834000       16.0000           0
     13880 TIP3     650      TP3      H1       HW       0.417000       1.00800           0
     13881 TIP3     650      TP3      H2       HW       0.417000       1.00800           0
     13882 TIP3     651      TP3      O        OW      -0.834000       16.0000           0
     13883 TIP3     651      TP3      H1       HW       0.417000       1.00800           0
     13884 TIP3     651      TP3      H2       HW       0.417000       1.00800           0
     13885 TIP3     652      TP3      O        OW      -0.834000       16.0000           0
     13886 TIP3     652      TP3      H1       HW       0.417000       1.00800           0
     13887 TIP3     652      TP3      H2       HW       0.417000       1.00800           0
     13888 TIP3     653      TP3      O        OW      -0.834000       16.0000           0
     13889 TIP3     653      TP3      H1       HW       0.417000       1.00800           0
     13890 TIP3     653      TP3      H2       HW       0.417000       1.00800           0
     13891 TIP3     654      TP3      O        OW      -0.834000       16.0000           0
     13892 TIP3     654      TP3      H1       HW       0.417000       1.00800           0
     13893 TIP3     654      TP3      H2       HW       0.417000       1.00800           0
     13894 TIP3     655      TP3      O        OW      -0.834000       16.0000           0
     13895 TIP3     655      TP3      H1       HW       0.417000       1.00800           0
     13896 TIP3     655      TP3      H2       HW       0.417000       1.00800           0
     13897 TIP3     656      TP3      O        OW      -0.834000       16.0000           0
     13898 TIP3     656      TP3      H1       HW       0.417000       1.00800           0
     13899 TIP3     656      TP3      H2       HW       0.417000       1.00800           0
     13900 TIP3     657      TP3      O        OW      -0.834000       16.0000           0
     13901 TIP3     657      TP3      H1       HW       0.417000       1.00800           0
     13902 TIP3     657      TP3      H2       HW       0.417000       1.00800           0
     13903 TIP3     658      TP3      O        OW      -0.834000       16.0000           0
     13904 TIP3     658      TP3      H1       HW       0.417000       1.00800           0
     13905 TIP3     658      TP3      H2       HW       0.417000       1.00800           0
     13906 TIP3     659      TP3      O        OW      -0.834000       16.0000           0
     13907 TIP3     659      TP3      H1       HW       0.417000       1.00800           0
     13908 TIP3     659      TP3      H2       HW       0.417000       1.00800           0
     13909 TIP3     660      TP3      O        OW      -0.834000       16.0000           0
     13910 TIP3     660      TP3      H1       HW       0.417000       1.00800           0
     13911 TIP3     660      TP3      H2       HW       0.417000       1.00800           0
     13912 TIP3     661      TP3      O        OW      -0.834000       16.0000           0
     13913 TIP3     661      TP3      H1       HW       0.417000       1.00800           0
     13914 TIP3     661      TP3      H2       HW       0.417000       1.00800           0
     13915 TIP3     662      TP3      O        OW      -0.834000       16.0000           0
     13916 TIP3     662      TP3      H1       HW       0.417000       1.00800           0
     13917 TIP3     662      TP3      H2       HW       0.417000       1.00800           0
     13918 TIP3     663      TP3      O        OW      -0.834000       16.0000           0
     13919 TIP3     663      TP3      H1       HW       0.417000       1.00800           0
     13920 TIP3     663      TP3      H2       HW       0.417000       1.00800           0
     13921 TIP3     664      TP3      O        OW      -0.834000       16.0000           0
     13922 TIP3     664      TP3      H1       HW       0.417000       1.00800           0
     13923 TIP3     664      TP3      H2       HW       0.417000       1.00800           0
     13924 TIP3     665      TP3      O        OW      -0.834000       16.0000           0
     13925 TIP3     665      TP3      H1       HW       0.417000       1.00800           0
     13926 TIP3     665      TP3      H2       HW       0.417000       1.00800           0
     13927 TIP3     666      TP3      O        OW      -0.834000       16.0000           0
     13928 TIP3     666      TP3      H1       HW       0.417000       1.00800           0
     13929 TIP3     666      TP3      H2       HW       0.417000       1.00800           0
     13930 TIP3     667      TP3      O        OW      -0.834000       16.0000           0
     13931 TIP3     667      TP3      H1       HW       0.417000       1.00800           0
     13932 TIP3     667      TP3      H2       HW       0.417000       1.00800           0
     13933 TIP3     668      TP3      O        OW      -0.834000       16.0000           0
     13934 TIP3     668      TP3      H1       HW       0.417000       1.00800           0
     13935 TIP3     668      TP3      H2       HW       0.417000       1.00800           0
     13936 TIP3     669      TP3      O        OW      -0.834000       16.0000           0
     13937 TIP3     669      TP3      H1       HW       0.417000       1.00800           0
     13938 TIP3     669      TP3      H2       HW       0.417000       1.00800           0
     13939 TIP3     670      TP3      O        OW      -0.834000       16.0000           0
     13940 TIP3     670      TP3      H1       HW       0.417000       1.00800           0
     13941 TIP3     670      TP3      H2       HW       0.417000       1.00800           0
     13942 TIP3     671      TP3      O        OW      -0.834000       16.0000           0
     13943 TIP3     671      TP3      H1       HW       0.417000       1.00800           0
     13944 TIP3     671      TP3      H2       HW       0.417000       1.00800           0
     13945 TIP3     672      TP3      O        OW      -0.834000       16.0000           0
     13946 TIP3     672      TP3      H1       HW       0.417000       1.00800           0
     13947 TIP3     672      TP3      H2       HW       0.417000       1.00800           0
     13948 TIP3     673      TP3      O        OW      -0.834000       16.0000           0
     13949 TIP3     673      TP3      H1       HW       0.417000       1.00800           0
     13950 TIP3     673      TP3      H2       HW       0.417000       1.00800           0
     13951 TIP3     674      TP3      O        OW      -0.834000       16.0000           0
     13952 TIP3     674      TP3      H1       HW       0.417000       1.00800           0
     13953 TIP3     674      TP3      H2       HW       0.417000       1.00800           0
     13954 TIP3     675      TP3      O        OW      -0.834000       16.0000           0
     13955 TIP3     675      TP3      H1       HW       0.417000       1.00800           0
     13956 TIP3     675      TP3      H2       HW       0.417000       1.00800           0
     13957 TIP3     676      TP3      O        OW      -0.834000       16.0000           0
     13958 TIP3     676      TP3      H1       HW       0.417000       1.00800           0
     13959 TIP3     676      TP3      H2       HW       0.417000       1.00800           0
     13960 TIP3     677      TP3      O        OW      -0.834000       16.0000           0
     13961 TIP3     677      TP3      H1       HW       0.417000       1.00800           0
     13962 TIP3     677      TP3      H2       HW       0.417000       1.00800           0
     13963 TIP3     678      TP3      O        OW      -0.834000       16.0000           0
     13964 TIP3     678      TP3      H1       HW       0.417000       1.00800           0
     13965 TIP3     678      TP3      H2       HW       0.417000       1.00800           0
     13966 TIP3     679      TP3      O        OW      -0.834000       16.0000           0
     13967 TIP3     679      TP3      H1       HW       0.417000       1.00800           0
     13968 TIP3     679      TP3      H2       HW       0.417000       1.00800           0
     13969 TIP3     680      TP3      O        OW      -0.834000       16.0000           0
     13970 TIP3     680      TP3      H1       HW       0.417000       1.00800           0
     13971 TIP3     680      TP3      H2       HW       0.417000       1.00800           0
     13972 TIP3     681      TP3      O        OW      -0.834000       16.0000           0
     13973 TIP3     681      TP3      H1       HW       0.417000       1.00800           0
     13974 TIP3     681      TP3      H2       HW       0.417000       1.00800           0
     13975 TIP3     682      TP3      O        OW      -0.834000       16.0000           0
     13976 TIP3     682      TP3      H1       HW       0.417000       1.00800           0
     13977 TIP3     682      TP3      H2       HW       0.417000       1.00800           0
     13978 TIP3     683      TP3      O        OW      -0.834000       16.0000           0
     13979 TIP3     683      TP3      H1       HW       0.417000       1.00800           0
     13980 TIP3     683      TP3      H2       HW       0.417000       1.00800           0
     13981 TIP3     684      TP3      O        OW      -0.834000       16.0000           0
     13982 TIP3     684      TP3      H1       HW       0.417000       1.00800           0
     13983 TIP3     684      TP3      H2       HW       0.417000       1.00800           0
     13984 TIP3     685      TP3      O        OW      -0.834000       16.0000           0
     13985 TIP3     685      TP3      H1       HW       0.417000       1.00800           0
     13986 TIP3     685      TP3      H2       HW       0.417000       1.00800           0
     13987 TIP3     686      TP3      O        OW      -0.834000       16.0000           0
     13988 TIP3     686      TP3      H1       HW       0.417000       1.00800           0
     13989 TIP3     686      TP3      H2       HW       0.417000       1.00800           0
     13990 TIP3     687      TP3      O        OW      -0.834000       16.0000           0
     13991 TIP3     687      TP3      H1       HW       0.417000       1.00800           0
     13992 TIP3     687      TP3      H2       HW       0.417000       1.00800           0
     13993 TIP3     688      TP3      O        OW      -0.834000       16.0000           0
     13994 TIP3     688      TP3      H1       HW       0.417000       1.00800           0
     13995 TIP3     688      TP3      H2       HW       0.417000       1.00800           0
     13996 TIP3     689      TP3      O        OW      -0.834000       16.0000           0
     13997 TIP3     689      TP3      H1       HW       0.417000       1.00800           0
     13998 TIP3     689      TP3      H2       HW       0.417000       1.00800           0
     13999 TIP3     690      TP3      O        OW      -0.834000       16.0000           0
     14000 TIP3     690      TP3      H1       HW       0.417000       1.00800           0
     14001 TIP3     690      TP3      H2       HW       0.417000       1.00800           0
     14002 TIP3     691      TP3      O        OW      -0.834000       16.0000           0
     14003 TIP3     691      TP3      H1       HW       0.417000       1.00800           0
     14004 TIP3     691      TP3      H2       HW       0.417000       1.00800           0
     14005 TIP3     692      TP3      O        OW      -0.834000       16.0000           0
     14006 TIP3     692      TP3      H1       HW       0.417000       1.00800           0
     14007 TIP3     692      TP3      H2       HW       0.417000       1.00800           0
     14008 TIP3     693      TP3      O        OW      -0.834000       16.0000           0
     14009 TIP3     693      TP3      H1       HW       0.417000       1.00800           0
     14010 TIP3     693      TP3      H2       HW       0.417000       1.00800           0
     14011 TIP3     694      TP3      O        OW      -0.834000       16.0000           0
     14012 TIP3     694      TP3      H1       HW       0.417000       1.00800           0
     14013 TIP3     694      TP3      H2       HW       0.417000       1.00800           0
     14014 TIP3     695      TP3      O        OW      -0.834000       16.0000           0
     14015 TIP3     695      TP3      H1       HW       0.417000       1.00800           0
     14016 TIP3     695      TP3      H2       HW       0.417000       1.00800           0
     14017 TIP3     696      TP3      O        OW      -0.834000       16.0000           0
     14018 TIP3     696      TP3      H1       HW       0.417000       1.00800           0
     14019 TIP3     696      TP3      H2       HW       0.417000       1.00800           0
     14020 TIP3     697      TP3      O        OW      -0.834000       16.0000           0
     14021 TIP3     697      TP3      H1       HW       0.417000       1.00800           0
     14022 TIP3     697      TP3      H2       HW       0.417000       1.00800           0
     14023 TIP3     698      TP3      O        OW      -0.834000       16.0000           0
     14024 TIP3     698      TP3      H1       HW       0.417000       1.00800           0
     14025 TIP3     698      TP3      H2       HW       0.417000       1.00800           0
     14026 TIP3     699      TP3      O        OW      -0.834000       16.0000           0
     14027 TIP3     699      TP3      H1       HW       0.417000       1.00800           0
     14028 TIP3     699      TP3      H2       HW       0.417000       1.00800           0
     14029 TIP3     700      TP3      O        OW      -0.834000       16.0000           0
     14030 TIP3     700      TP3      H1       HW       0.417000       1.00800           0
     14031 TIP3     700      TP3      H2       HW       0.417000       1.00800           0
     14032 TIP3     701      TP3      O        OW      -0.834000       16.0000           0
     14033 TIP3     701      TP3      H1       HW       0.417000       1.00800           0
     14034 TIP3     701      TP3      H2       HW       0.417000       1.00800           0
     14035 TIP3     702      TP3      O        OW      -0.834000       16.0000           0
     14036 TIP3     702      TP3      H1       HW       0.417000       1.00800           0
     14037 TIP3     702      TP3      H2       HW       0.417000       1.00800           0
     14038 TIP3     703      TP3      O        OW      -0.834000       16.0000           0
     14039 TIP3     703      TP3      H1       HW       0.417000       1.00800           0
     14040 TIP3     703      TP3      H2       HW       0.417000       1.00800           0
     14041 TIP3     704      TP3      O        OW      -0.834000       16.0000           0
     14042 TIP3     704      TP3      H1       HW       0.417000       1.00800           0
     14043 TIP3     704      TP3      H2       HW       0.417000       1.00800           0
     14044 TIP3     705      TP3      O        OW      -0.834000       16.0000           0
     14045 TIP3     705      TP3      H1       HW       0.417000       1.00800           0
     14046 TIP3     705      TP3      H2       HW       0.417000       1.00800           0
     14047 TIP3     706      TP3      O        OW      -0.834000       16.0000           0
     14048 TIP3     706      TP3      H1       HW       0.417000       1.00800           0
     14049 TIP3     706      TP3      H2       HW       0.417000       1.00800           0
     14050 TIP3     707      TP3      O        OW      -0.834000       16.0000           0
     14051 TIP3     707      TP3      H1       HW       0.417000       1.00800           0
     14052 TIP3     707      TP3      H2       HW       0.417000       1.00800           0
     14053 TIP3     708      TP3      O        OW      -0.834000       16.0000           0
     14054 TIP3     708      TP3      H1       HW       0.417000       1.00800           0
     14055 TIP3     708      TP3      H2       HW       0.417000       1.00800           0
     14056 TIP3     709      TP3      O        OW      -0.834000       16.0000           0
     14057 TIP3     709      TP3      H1       HW       0.417000       1.00800           0
     14058 TIP3     709      TP3      H2       HW       0.417000       1.00800           0
     14059 TIP3     710      TP3      O        OW      -0.834000       16.0000           0
     14060 TIP3     710      TP3      H1       HW       0.417000       1.00800           0
     14061 TIP3     710      TP3      H2       HW       0.417000       1.00800           0
     14062 TIP3     711      TP3      O        OW      -0.834000       16.0000           0
     14063 TIP3     711      TP3      H1       HW       0.417000       1.00800           0
     14064 TIP3     711      TP3      H2       HW       0.417000       1.00800           0
     14065 TIP3     712      TP3      O        OW      -0.834000       16.0000           0
     14066 TIP3     712      TP3      H1       HW       0.417000       1.00800           0
     14067 TIP3     712      TP3      H2       HW       0.417000       1.00800           0
     14068 TIP3     713      TP3      O        OW      -0.834000       16.0000           0
     14069 TIP3     713      TP3      H1       HW       0.417000       1.00800           0
     14070 TIP3     713      TP3      H2       HW       0.417000       1.00800           0
     14071 TIP3     714      TP3      O        OW      -0.834000       16.0000           0
     14072 TIP3     714      TP3      H1       HW       0.417000       1.00800           0
     14073 TIP3     714      TP3      H2       HW       0.417000       1.00800           0
     14074 TIP3     715      TP3      O        OW      -0.834000       16.0000           0
     14075 TIP3     715      TP3      H1       HW       0.417000       1.00800           0
     14076 TIP3     715      TP3      H2       HW       0.417000       1.00800           0
     14077 TIP3     716      TP3      O        OW      -0.834000       16.0000           0
     14078 TIP3     716      TP3      H1       HW       0.417000       1.00800           0
     14079 TIP3     716      TP3      H2       HW       0.417000       1.00800           0
     14080 TIP3     717      TP3      O        OW      -0.834000       16.0000           0
     14081 TIP3     717      TP3      H1       HW       0.417000       1.00800           0
     14082 TIP3     717      TP3      H2       HW       0.417000       1.00800           0
     14083 TIP3     718      TP3      O        OW      -0.834000       16.0000           0
     14084 TIP3     718      TP3      H1       HW       0.417000       1.00800           0
     14085 TIP3     718      TP3      H2       HW       0.417000       1.00800           0
     14086 TIP3     719      TP3      O        OW      -0.834000       16.0000           0
     14087 TIP3     719      TP3      H1       HW       0.417000       1.00800           0
     14088 TIP3     719      TP3      H2       HW       0.417000       1.00800           0
     14089 TIP3     720      TP3      O        OW      -0.834000       16.0000           0
     14090 TIP3     720      TP3      H1       HW       0.417000       1.00800           0
     14091 TIP3     720      TP3      H2       HW       0.417000       1.00800           0
     14092 TIP3     721      TP3      O        OW      -0.834000       16.0000           0
     14093 TIP3     721      TP3      H1       HW       0.417000       1.00800           0
     14094 TIP3     721      TP3      H2       HW       0.417000       1.00800           0
     14095 TIP3     722      TP3      O        OW      -0.834000       16.0000           0
     14096 TIP3     722      TP3      H1       HW       0.417000       1.00800           0
     14097 TIP3     722      TP3      H2       HW       0.417000       1.00800           0
     14098 TIP3     723      TP3      O        OW      -0.834000       16.0000           0
     14099 TIP3     723      TP3      H1       HW       0.417000       1.00800           0
     14100 TIP3     723      TP3      H2       HW       0.417000       1.00800           0
     14101 TIP3     724      TP3      O        OW      -0.834000       16.0000           0
     14102 TIP3     724      TP3      H1       HW       0.417000       1.00800           0
     14103 TIP3     724      TP3      H2       HW       0.417000       1.00800           0
     14104 TIP3     725      TP3      O        OW      -0.834000       16.0000           0
     14105 TIP3     725      TP3      H1       HW       0.417000       1.00800           0
     14106 TIP3     725      TP3      H2       HW       0.417000       1.00800           0
     14107 TIP3     726      TP3      O        OW      -0.834000       16.0000           0
     14108 TIP3     726      TP3      H1       HW       0.417000       1.00800           0
     14109 TIP3     726      TP3      H2       HW       0.417000       1.00800           0
     14110 TIP3     727      TP3      O        OW      -0.834000       16.0000           0
     14111 TIP3     727      TP3      H1       HW       0.417000       1.00800           0
     14112 TIP3     727      TP3      H2       HW       0.417000       1.00800           0
     14113 TIP3     728      TP3      O        OW      -0.834000       16.0000           0
     14114 TIP3     728      TP3      H1       HW       0.417000       1.00800           0
     14115 TIP3     728      TP3      H2       HW       0.417000       1.00800           0
     14116 TIP3     729      TP3      O        OW      -0.834000       16.0000           0
     14117 TIP3     729      TP3      H1       HW       0.417000       1.00800           0
     14118 TIP3     729      TP3      H2       HW       0.417000       1.00800           0
     14119 TIP3     730      TP3      O        OW      -0.834000       16.0000           0
     14120 TIP3     730      TP3      H1       HW       0.417000       1.00800           0
     14121 TIP3     730      TP3      H2       HW       0.417000       1.00800           0
     14122 TIP3     731      TP3      O        OW      -0.834000       16.0000           0
     14123 TIP3     731      TP3      H1       HW       0.417000       1.00800           0
     14124 TIP3     731      TP3      H2       HW       0.417000       1.00800           0
     14125 TIP3     732      TP3      O        OW      -0.834000       16.0000           0
     14126 TIP3     732      TP3      H1       HW       0.417000       1.00800           0
     14127 TIP3     732      TP3      H2       HW       0.417000       1.00800           0
     14128 TIP3     733      TP3      O        OW      -0.834000       16.0000           0
     14129 TIP3     733      TP3      H1       HW       0.417000       1.00800           0
     14130 TIP3     733      TP3      H2       HW       0.417000       1.00800           0
     14131 TIP3     734      TP3      O        OW      -0.834000       16.0000           0
     14132 TIP3     734      TP3      H1       HW       0.417000       1.00800           0
     14133 TIP3     734      TP3      H2       HW       0.417000       1.00800           0
     14134 TIP3     735      TP3      O        OW      -0.834000       16.0000           0
     14135 TIP3     735      TP3      H1       HW       0.417000       1.00800           0
     14136 TIP3     735      TP3      H2       HW       0.417000       1.00800           0
     14137 TIP3     736      TP3      O        OW      -0.834000       16.0000           0
     14138 TIP3     736      TP3      H1       HW       0.417000       1.00800           0
     14139 TIP3     736      TP3      H2       HW       0.417000       1.00800           0
     14140 TIP3     737      TP3      O        OW      -0.834000       16.0000           0
     14141 TIP3     737      TP3      H1       HW       0.417000       1.00800           0
     14142 TIP3     737      TP3      H2       HW       0.417000       1.00800           0
     14143 TIP3     738      TP3      O        OW      -0.834000       16.0000           0
     14144 TIP3     738      TP3      H1       HW       0.417000       1.00800           0
     14145 TIP3     738      TP3      H2       HW       0.417000       1.00800           0
     14146 TIP3     739      TP3      O        OW      -0.834000       16.0000           0
     14147 TIP3     739      TP3      H1       HW       0.417000       1.00800           0
     14148 TIP3     739      TP3      H2       HW       0.417000       1.00800           0
     14149 TIP3     740      TP3      O        OW      -0.834000       16.0000           0
     14150 TIP3     740      TP3      H1       HW       0.417000       1.00800           0
     14151 TIP3     740      TP3      H2       HW       0.417000       1.00800           0
     14152 TIP3     741      TP3      O        OW      -0.834000       16.0000           0
     14153 TIP3     741      TP3      H1       HW       0.417000       1.00800           0
     14154 TIP3     741      TP3      H2       HW       0.417000       1.00800           0
     14155 TIP3     742      TP3      O        OW      -0.834000       16.0000           0
     14156 TIP3     742      TP3      H1       HW       0.417000       1.00800           0
     14157 TIP3     742      TP3      H2       HW       0.417000       1.00800           0
     14158 TIP3     743      TP3      O        OW      -0.834000       16.0000           0
     14159 TIP3     743      TP3      H1       HW       0.417000       1.00800           0
     14160 TIP3     743      TP3      H2       HW       0.417000       1.00800           0
     14161 TIP3     744      TP3      O        OW      -0.834000       16.0000           0
     14162 TIP3     744      TP3      H1       HW       0.417000       1.00800           0
     14163 TIP3     744      TP3      H2       HW       0.417000       1.00800           0
     14164 TIP3     745      TP3      O        OW      -0.834000       16.0000           0
     14165 TIP3     745      TP3      H1       HW       0.417000       1.00800           0
     14166 TIP3     745      TP3      H2       HW       0.417000       1.00800           0
     14167 TIP3     746      TP3      O        OW      -0.834000       16.0000           0
     14168 TIP3     746      TP3      H1       HW       0.417000       1.00800           0
     14169 TIP3     746      TP3      H2       HW       0.417000       1.00800           0
     14170 TIP3     747      TP3      O        OW      -0.834000       16.0000           0
     14171 TIP3     747      TP3      H1       HW       0.417000       1.00800           0
     14172 TIP3     747      TP3      H2       HW       0.417000       1.00800           0
     14173 TIP3     748      TP3      O        OW      -0.834000       16.0000           0
     14174 TIP3     748      TP3      H1       HW       0.417000       1.00800           0
     14175 TIP3     748      TP3      H2       HW       0.417000       1.00800           0
     14176 TIP3     749      TP3      O        OW      -0.834000       16.0000           0
     14177 TIP3     749      TP3      H1       HW       0.417000       1.00800           0
     14178 TIP3     749      TP3      H2       HW       0.417000       1.00800           0
     14179 TIP3     750      TP3      O        OW      -0.834000       16.0000           0
     14180 TIP3     750      TP3      H1       HW       0.417000       1.00800           0
     14181 TIP3     750      TP3      H2       HW       0.417000       1.00800           0
     14182 TIP3     751      TP3      O        OW      -0.834000       16.0000           0
     14183 TIP3     751      TP3      H1       HW       0.417000       1.00800           0
     14184 TIP3     751      TP3      H2       HW       0.417000       1.00800           0
     14185 TIP3     752      TP3      O        OW      -0.834000       16.0000           0
     14186 TIP3     752      TP3      H1       HW       0.417000       1.00800           0
     14187 TIP3     752      TP3      H2       HW       0.417000       1.00800           0
     14188 TIP3     753      TP3      O        OW      -0.834000       16.0000           0
     14189 TIP3     753      TP3      H1       HW       0.417000       1.00800           0
     14190 TIP3     753      TP3      H2       HW       0.417000       1.00800           0
     14191 TIP3     754      TP3      O        OW      -0.834000       16.0000           0
     14192 TIP3     754      TP3      H1       HW       0.417000       1.00800           0
     14193 TIP3     754      TP3      H2       HW       0.417000       1.00800           0
     14194 TIP3     755      TP3      O        OW      -0.834000       16.0000           0
     14195 TIP3     755      TP3      H1       HW       0.417000       1.00800           0
     14196 TIP3     755      TP3      H2       HW       0.417000       1.00800           0
     14197 TIP3     756      TP3      O        OW      -0.834000       16.0000           0
     14198 TIP3     756      TP3      H1       HW       0.417000       1.00800           0
     14199 TIP3     756      TP3      H2       HW       0.417000       1.00800           0
     14200 TIP3     757      TP3      O        OW      -0.834000       16.0000           0
     14201 TIP3     757      TP3      H1       HW       0.417000       1.00800           0
     14202 TIP3     757      TP3      H2       HW       0.417000       1.00800           0
     14203 TIP3     758      TP3      O        OW      -0.834000       16.0000           0
     14204 TIP3     758      TP3      H1       HW       0.417000       1.00800           0
     14205 TIP3     758      TP3      H2       HW       0.417000       1.00800           0
     14206 TIP3     759      TP3      O        OW      -0.834000       16.0000           0
     14207 TIP3     759      TP3      H1       HW       0.417000       1.00800           0
     14208 TIP3     759      TP3      H2       HW       0.417000       1.00800           0
     14209 TIP3     760      TP3      O        OW      -0.834000       16.0000           0
     14210 TIP3     760      TP3      H1       HW       0.417000       1.00800           0
     14211 TIP3     760      TP3      H2       HW       0.417000       1.00800           0
     14212 TIP3     761      TP3      O        OW      -0.834000       16.0000           0
     14213 TIP3     761      TP3      H1       HW       0.417000       1.00800           0
     14214 TIP3     761      TP3      H2       HW       0.417000       1.00800           0
     14215 TIP3     762      TP3      O        OW      -0.834000       16.0000           0
     14216 TIP3     762      TP3      H1       HW       0.417000       1.00800           0
     14217 TIP3     762      TP3      H2       HW       0.417000       1.00800           0
     14218 TIP3     763      TP3      O        OW      -0.834000       16.0000           0
     14219 TIP3     763      TP3      H1       HW       0.417000       1.00800           0
     14220 TIP3     763      TP3      H2       HW       0.417000       1.00800           0
     14221 TIP3     764      TP3      O        OW      -0.834000       16.0000           0
     14222 TIP3     764      TP3      H1       HW       0.417000       1.00800           0
     14223 TIP3     764      TP3      H2       HW       0.417000       1.00800           0
     14224 TIP3     765      TP3      O        OW      -0.834000       16.0000           0
     14225 TIP3     765      TP3      H1       HW       0.417000       1.00800           0
     14226 TIP3     765      TP3      H2       HW       0.417000       1.00800           0
     14227 TIP3     766      TP3      O        OW      -0.834000       16.0000           0
     14228 TIP3     766      TP3      H1       HW       0.417000       1.00800           0
     14229 TIP3     766      TP3      H2       HW       0.417000       1.00800           0
     14230 TIP3     767      TP3      O        OW      -0.834000       16.0000           0
     14231 TIP3     767      TP3      H1       HW       0.417000       1.00800           0
     14232 TIP3     767      TP3      H2       HW       0.417000       1.00800           0
     14233 TIP3     768      TP3      O        OW      -0.834000       16.0000           0
     14234 TIP3     768      TP3      H1       HW       0.417000       1.00800           0
     14235 TIP3     768      TP3      H2       HW       0.417000       1.00800           0
     14236 TIP3     769      TP3      O        OW      -0.834000       16.0000           0
     14237 TIP3     769      TP3      H1       HW       0.417000       1.00800           0
     14238 TIP3     769      TP3      H2       HW       0.417000       1.00800           0
     14239 TIP3     770      TP3      O        OW      -0.834000       16.0000           0
     14240 TIP3     770      TP3      H1       HW       0.417000       1.00800           0
     14241 TIP3     770      TP3      H2       HW       0.417000       1.00800           0
     14242 TIP3     771      TP3      O        OW      -0.834000       16.0000           0
     14243 TIP3     771      TP3      H1       HW       0.417000       1.00800           0
     14244 TIP3     771      TP3      H2       HW       0.417000       1.00800           0
     14245 TIP3     772      TP3      O        OW      -0.834000       16.0000           0
     14246 TIP3     772      TP3      H1       HW       0.417000       1.00800           0
     14247 TIP3     772      TP3      H2       HW       0.417000       1.00800           0
     14248 TIP3     773      TP3      O        OW      -0.834000       16.0000           0
     14249 TIP3     773      TP3      H1       HW       0.417000       1.00800           0
     14250 TIP3     773      TP3      H2       HW       0.417000       1.00800           0
     14251 TIP3     774      TP3      O        OW      -0.834000       16.0000           0
     14252 TIP3     774      TP3      H1       HW       0.417000       1.00800           0
     14253 TIP3     774      TP3      H2       HW       0.417000       1.00800           0
     14254 TIP3     775      TP3      O        OW      -0.834000       16.0000           0
     14255 TIP3     775      TP3      H1       HW       0.417000       1.00800           0
     14256 TIP3     775      TP3      H2       HW       0.417000       1.00800           0
     14257 TIP3     776      TP3      O        OW      -0.834000       16.0000           0
     14258 TIP3     776      TP3      H1       HW       0.417000       1.00800           0
     14259 TIP3     776      TP3      H2       HW       0.417000       1.00800           0
     14260 TIP3     777      TP3      O        OW      -0.834000       16.0000           0
     14261 TIP3     777      TP3      H1       HW       0.417000       1.00800           0
     14262 TIP3     777      TP3      H2       HW       0.417000       1.00800           0
     14263 TIP3     778      TP3      O        OW      -0.834000       16.0000           0
     14264 TIP3     778      TP3      H1       HW       0.417000       1.00800           0
     14265 TIP3     778      TP3      H2       HW       0.417000       1.00800           0
     14266 TIP3     779      TP3      O        OW      -0.834000       16.0000           0
     14267 TIP3     779      TP3      H1       HW       0.417000       1.00800           0
     14268 TIP3     779      TP3      H2       HW       0.417000       1.00800           0
     14269 TIP3     780      TP3      O        OW      -0.834000       16.0000           0
     14270 TIP3     780      TP3      H1       HW       0.417000       1.00800           0
     14271 TIP3     780      TP3      H2       HW       0.417000       1.00800           0
     14272 TIP3     781      TP3      O        OW      -0.834000       16.0000           0
     14273 TIP3     781      TP3      H1       HW       0.417000       1.00800           0
     14274 TIP3     781      TP3      H2       HW       0.417000       1.00800           0
     14275 TIP3     782      TP3      O        OW      -0.834000       16.0000           0
     14276 TIP3     782      TP3      H1       HW       0.417000       1.00800           0
     14277 TIP3     782      TP3      H2       HW       0.417000       1.00800           0
     14278 TIP3     783      TP3      O        OW      -0.834000       16.0000           0
     14279 TIP3     783      TP3      H1       HW       0.417000       1.00800           0
     14280 TIP3     783      TP3      H2       HW       0.417000       1.00800           0
     14281 TIP3     784      TP3      O        OW      -0.834000       16.0000           0
     14282 TIP3     784      TP3      H1       HW       0.417000       1.00800           0
     14283 TIP3     784      TP3      H2       HW       0.417000       1.00800           0
     14284 TIP3     785      TP3      O        OW      -0.834000       16.0000           0
     14285 TIP3     785      TP3      H1       HW       0.417000       1.00800           0
     14286 TIP3     785      TP3      H2       HW       0.417000       1.00800           0
     14287 TIP3     786      TP3      O        OW      -0.834000       16.0000           0
     14288 TIP3     786      TP3      H1       HW       0.417000       1.00800           0
     14289 TIP3     786      TP3      H2       HW       0.417000       1.00800           0
     14290 TIP3     787      TP3      O        OW      -0.834000       16.0000           0
     14291 TIP3     787      TP3      H1       HW       0.417000       1.00800           0
     14292 TIP3     787      TP3      H2       HW       0.417000       1.00800           0
     14293 TIP3     788      TP3      O        OW      -0.834000       16.0000           0
     14294 TIP3     788      TP3      H1       HW       0.417000       1.00800           0
     14295 TIP3     788      TP3      H2       HW       0.417000       1.00800           0
     14296 TIP3     789      TP3      O        OW      -0.834000       16.0000           0
     14297 TIP3     789      TP3      H1       HW       0.417000       1.00800           0
     14298 TIP3     789      TP3      H2       HW       0.417000       1.00800           0
     14299 TIP3     790      TP3      O        OW      -0.834000       16.0000           0
     14300 TIP3     790      TP3      H1       HW       0.417000       1.00800           0
     14301 TIP3     790      TP3      H2       HW       0.417000       1.00800           0
     14302 TIP3     791      TP3      O        OW      -0.834000       16.0000           0
     14303 TIP3     791      TP3      H1       HW       0.417000       1.00800           0
     14304 TIP3     791      TP3      H2       HW       0.417000       1.00800           0
     14305 TIP3     792      TP3      O        OW      -0.834000       16.0000           0
     14306 TIP3     792      TP3      H1       HW       0.417000       1.00800           0
     14307 TIP3     792      TP3      H2       HW       0.417000       1.00800           0
     14308 TIP3     793      TP3      O        OW      -0.834000       16.0000           0
     14309 TIP3     793      TP3      H1       HW       0.417000       1.00800           0
     14310 TIP3     793      TP3      H2       HW       0.417000       1.00800           0
     14311 TIP3     794      TP3      O        OW      -0.834000       16.0000           0
     14312 TIP3     794      TP3      H1       HW       0.417000       1.00800           0
     14313 TIP3     794      TP3      H2       HW       0.417000       1.00800           0
     14314 TIP3     795      TP3      O        OW      -0.834000       16.0000           0
     14315 TIP3     795      TP3      H1       HW       0.417000       1.00800           0
     14316 TIP3     795      TP3      H2       HW       0.417000       1.00800           0
     14317 TIP3     796      TP3      O        OW      -0.834000       16.0000           0
     14318 TIP3     796      TP3      H1       HW       0.417000       1.00800           0
     14319 TIP3     796      TP3      H2       HW       0.417000       1.00800           0
     14320 TIP3     797      TP3      O        OW      -0.834000       16.0000           0
     14321 TIP3     797      TP3      H1       HW       0.417000       1.00800           0
     14322 TIP3     797      TP3      H2       HW       0.417000       1.00800           0
     14323 TIP3     798      TP3      O        OW      -0.834000       16.0000           0
     14324 TIP3     798      TP3      H1       HW       0.417000       1.00800           0
     14325 TIP3     798      TP3      H2       HW       0.417000       1.00800           0
     14326 TIP3     799      TP3      O        OW      -0.834000       16.0000           0
     14327 TIP3     799      TP3      H1       HW       0.417000       1.00800           0
     14328 TIP3     799      TP3      H2       HW       0.417000       1.00800           0
     14329 TIP3     800      TP3      O        OW      -0.834000       16.0000           0
     14330 TIP3     800      TP3      H1       HW       0.417000       1.00800           0
     14331 TIP3     800      TP3      H2       HW       0.417000       1.00800           0
     14332 TIP3     801      TP3      O        OW      -0.834000       16.0000           0
     14333 TIP3     801      TP3      H1       HW       0.417000       1.00800           0
     14334 TIP3     801      TP3      H2       HW       0.417000       1.00800           0
     14335 TIP3     802      TP3      O        OW      -0.834000       16.0000           0
     14336 TIP3     802      TP3      H1       HW       0.417000       1.00800           0
     14337 TIP3     802      TP3      H2       HW       0.417000       1.00800           0
     14338 TIP3     803      TP3      O        OW      -0.834000       16.0000           0
     14339 TIP3     803      TP3      H1       HW       0.417000       1.00800           0
     14340 TIP3     803      TP3      H2       HW       0.417000       1.00800           0
     14341 TIP3     804      TP3      O        OW      -0.834000       16.0000           0
     14342 TIP3     804      TP3      H1       HW       0.417000       1.00800           0
     14343 TIP3     804      TP3      H2       HW       0.417000       1.00800           0
     14344 TIP3     805      TP3      O        OW      -0.834000       16.0000           0
     14345 TIP3     805      TP3      H1       HW       0.417000       1.00800           0
     14346 TIP3     805      TP3      H2       HW       0.417000       1.00800           0
     14347 TIP3     806      TP3      O        OW      -0.834000       16.0000           0
     14348 TIP3     806      TP3      H1       HW       0.417000       1.00800           0
     14349 TIP3     806      TP3      H2       HW       0.417000       1.00800           0
     14350 TIP3     807      TP3      O        OW      -0.834000       16.0000           0
     14351 TIP3     807      TP3      H1       HW       0.417000       1.00800           0
     14352 TIP3     807      TP3      H2       HW       0.417000       1.00800           0
     14353 TIP3     808      TP3      O        OW      -0.834000       16.0000           0
     14354 TIP3     808      TP3      H1       HW       0.417000       1.00800           0
     14355 TIP3     808      TP3      H2       HW       0.417000       1.00800           0
     14356 TIP3     809      TP3      O        OW      -0.834000       16.0000           0
     14357 TIP3     809      TP3      H1       HW       0.417000       1.00800           0
     14358 TIP3     809      TP3      H2       HW       0.417000       1.00800           0
     14359 TIP3     810      TP3      O        OW      -0.834000       16.0000           0
     14360 TIP3     810      TP3      H1       HW       0.417000       1.00800           0
     14361 TIP3     810      TP3      H2       HW       0.417000       1.00800           0
     14362 TIP3     811      TP3      O        OW      -0.834000       16.0000           0
     14363 TIP3     811      TP3      H1       HW       0.417000       1.00800           0
     14364 TIP3     811      TP3      H2       HW       0.417000       1.00800           0
     14365 TIP3     812      TP3      O        OW      -0.834000       16.0000           0
     14366 TIP3     812      TP3      H1       HW       0.417000       1.00800           0
     14367 TIP3     812      TP3      H2       HW       0.417000       1.00800           0
     14368 TIP3     813      TP3      O        OW      -0.834000       16.0000           0
     14369 TIP3     813      TP3      H1       HW       0.417000       1.00800           0
     14370 TIP3     813      TP3      H2       HW       0.417000       1.00800           0
     14371 TIP3     814      TP3      O        OW      -0.834000       16.0000           0
     14372 TIP3     814      TP3      H1       HW       0.417000       1.00800           0
     14373 TIP3     814      TP3      H2       HW       0.417000       1.00800           0
     14374 TIP3     815      TP3      O        OW      -0.834000       16.0000           0
     14375 TIP3     815      TP3      H1       HW       0.417000       1.00800           0
     14376 TIP3     815      TP3      H2       HW       0.417000       1.00800           0
     14377 TIP3     816      TP3      O        OW      -0.834000       16.0000           0
     14378 TIP3     816      TP3      H1       HW       0.417000       1.00800           0
     14379 TIP3     816      TP3      H2       HW       0.417000       1.00800           0
     14380 TIP3     817      TP3      O        OW      -0.834000       16.0000           0
     14381 TIP3     817      TP3      H1       HW       0.417000       1.00800           0
     14382 TIP3     817      TP3      H2       HW       0.417000       1.00800           0
     14383 TIP3     818      TP3      O        OW      -0.834000       16.0000           0
     14384 TIP3     818      TP3      H1       HW       0.417000       1.00800           0
     14385 TIP3     818      TP3      H2       HW       0.417000       1.00800           0
     14386 TIP3     819      TP3      O        OW      -0.834000       16.0000           0
     14387 TIP3     819      TP3      H1       HW       0.417000       1.00800           0
     14388 TIP3     819      TP3      H2       HW       0.417000       1.00800           0
     14389 TIP3     820      TP3      O        OW      -0.834000       16.0000           0
     14390 TIP3     820      TP3      H1       HW       0.417000       1.00800           0
     14391 TIP3     820      TP3      H2       HW       0.417000       1.00800           0
     14392 TIP3     821      TP3      O        OW      -0.834000       16.0000           0
     14393 TIP3     821      TP3      H1       HW       0.417000       1.00800           0
     14394 TIP3     821      TP3      H2       HW       0.417000       1.00800           0
     14395 TIP3     822      TP3      O        OW      -0.834000       16.0000           0
     14396 TIP3     822      TP3      H1       HW       0.417000       1.00800           0
     14397 TIP3     822      TP3      H2       HW       0.417000       1.00800           0
     14398 TIP3     823      TP3      O        OW      -0.834000       16.0000           0
     14399 TIP3     823      TP3      H1       HW       0.417000       1.00800           0
     14400 TIP3     823      TP3      H2       HW       0.417000       1.00800           0
     14401 TIP3     824      TP3      O        OW      -0.834000       16.0000           0
     14402 TIP3     824      TP3      H1       HW       0.417000       1.00800           0
     14403 TIP3     824      TP3      H2       HW       0.417000       1.00800           0
     14404 TIP3     825      TP3      O        OW      -0.834000       16.0000           0
     14405 TIP3     825      TP3      H1       HW       0.417000       1.00800           0
     14406 TIP3     825      TP3      H2       HW       0.417000       1.00800           0
     14407 TIP3     826      TP3      O        OW      -0.834000       16.0000           0
     14408 TIP3     826      TP3      H1       HW       0.417000       1.00800           0
     14409 TIP3     826      TP3      H2       HW       0.417000       1.00800           0
     14410 TIP3     827      TP3      O        OW      -0.834000       16.0000           0
     14411 TIP3     827      TP3      H1       HW       0.417000       1.00800           0
     14412 TIP3     827      TP3      H2       HW       0.417000       1.00800           0
     14413 TIP3     828      TP3      O        OW      -0.834000       16.0000           0
     14414 TIP3     828      TP3      H1       HW       0.417000       1.00800           0
     14415 TIP3     828      TP3      H2       HW       0.417000       1.00800           0
     14416 TIP3     829      TP3      O        OW      -0.834000       16.0000           0
     14417 TIP3     829      TP3      H1       HW       0.417000       1.00800           0
     14418 TIP3     829      TP3      H2       HW       0.417000       1.00800           0
     14419 TIP3     830      TP3      O        OW      -0.834000       16.0000           0
     14420 TIP3     830      TP3      H1       HW       0.417000       1.00800           0
     14421 TIP3     830      TP3      H2       HW       0.417000       1.00800           0
     14422 TIP3     831      TP3      O        OW      -0.834000       16.0000           0
     14423 TIP3     831      TP3      H1       HW       0.417000       1.00800           0
     14424 TIP3     831      TP3      H2       HW       0.417000       1.00800           0
     14425 TIP3     832      TP3      O        OW      -0.834000       16.0000           0
     14426 TIP3     832      TP3      H1       HW       0.417000       1.00800           0
     14427 TIP3     832      TP3      H2       HW       0.417000       1.00800           0
     14428 TIP3     833      TP3      O        OW      -0.834000       16.0000           0
     14429 TIP3     833      TP3      H1       HW       0.417000       1.00800           0
     14430 TIP3     833      TP3      H2       HW       0.417000       1.00800           0
     14431 TIP3     834      TP3      O        OW      -0.834000       16.0000           0
     14432 TIP3     834      TP3      H1       HW       0.417000       1.00800           0
     14433 TIP3     834      TP3      H2       HW       0.417000       1.00800           0
     14434 TIP3     835      TP3      O        OW      -0.834000       16.0000           0
     14435 TIP3     835      TP3      H1       HW       0.417000       1.00800           0
     14436 TIP3     835      TP3      H2       HW       0.417000       1.00800           0
     14437 TIP3     836      TP3      O        OW      -0.834000       16.0000           0
     14438 TIP3     836      TP3      H1       HW       0.417000       1.00800           0
     14439 TIP3     836      TP3      H2       HW       0.417000       1.00800           0
     14440 TIP3     837      TP3      O        OW      -0.834000       16.0000           0
     14441 TIP3     837      TP3      H1       HW       0.417000       1.00800           0
     14442 TIP3     837      TP3      H2       HW       0.417000       1.00800           0
     14443 TIP3     838      TP3      O        OW      -0.834000       16.0000           0
     14444 TIP3     838      TP3      H1       HW       0.417000       1.00800           0
     14445 TIP3     838      TP3      H2       HW       0.417000       1.00800           0
     14446 TIP3     839      TP3      O        OW      -0.834000       16.0000           0
     14447 TIP3     839      TP3      H1       HW       0.417000       1.00800           0
     14448 TIP3     839      TP3      H2       HW       0.417000       1.00800           0
     14449 TIP3     840      TP3      O        OW      -0.834000       16.0000           0
     14450 TIP3     840      TP3      H1       HW       0.417000       1.00800           0
     14451 TIP3     840      TP3      H2       HW       0.417000       1.00800           0
     14452 TIP3     841      TP3      O        OW      -0.834000       16.0000           0
     14453 TIP3     841      TP3      H1       HW       0.417000       1.00800           0
     14454 TIP3     841      TP3      H2       HW       0.417000       1.00800           0
     14455 TIP3     842      TP3      O        OW      -0.834000       16.0000           0
     14456 TIP3     842      TP3      H1       HW       0.417000       1.00800           0
     14457 TIP3     842      TP3      H2       HW       0.417000       1.00800           0
     14458 TIP3     843      TP3      O        OW      -0.834000       16.0000           0
     14459 TIP3     843      TP3      H1       HW       0.417000       1.00800           0
     14460 TIP3     843      TP3      H2       HW       0.417000       1.00800           0
     14461 TIP3     844      TP3      O        OW      -0.834000       16.0000           0
     14462 TIP3     844      TP3      H1       HW       0.417000       1.00800           0
     14463 TIP3     844      TP3      H2       HW       0.417000       1.00800           0
     14464 TIP3     845      TP3      O        OW      -0.834000       16.0000           0
     14465 TIP3     845      TP3      H1       HW       0.417000       1.00800           0
     14466 TIP3     845      TP3      H2       HW       0.417000       1.00800           0
     14467 TIP3     846      TP3      O        OW      -0.834000       16.0000           0
     14468 TIP3     846      TP3      H1       HW       0.417000       1.00800           0
     14469 TIP3     846      TP3      H2       HW       0.417000       1.00800           0
     14470 TIP3     847      TP3      O        OW      -0.834000       16.0000           0
     14471 TIP3     847      TP3      H1       HW       0.417000       1.00800           0
     14472 TIP3     847      TP3      H2       HW       0.417000       1.00800           0
     14473 TIP3     848      TP3      O        OW      -0.834000       16.0000           0
     14474 TIP3     848      TP3      H1       HW       0.417000       1.00800           0
     14475 TIP3     848      TP3      H2       HW       0.417000       1.00800           0
     14476 TIP3     849      TP3      O        OW      -0.834000       16.0000           0
     14477 TIP3     849      TP3      H1       HW       0.417000       1.00800           0
     14478 TIP3     849      TP3      H2       HW       0.417000       1.00800           0
     14479 TIP3     850      TP3      O        OW      -0.834000       16.0000           0
     14480 TIP3     850      TP3      H1       HW       0.417000       1.00800           0
     14481 TIP3     850      TP3      H2       HW       0.417000       1.00800           0
     14482 TIP3     851      TP3      O        OW      -0.834000       16.0000           0
     14483 TIP3     851      TP3      H1       HW       0.417000       1.00800           0
     14484 TIP3     851      TP3      H2       HW       0.417000       1.00800           0
     14485 TIP3     852      TP3      O        OW      -0.834000       16.0000           0
     14486 TIP3     852      TP3      H1       HW       0.417000       1.00800           0
     14487 TIP3     852      TP3      H2       HW       0.417000       1.00800           0
     14488 TIP3     853      TP3      O        OW      -0.834000       16.0000           0
     14489 TIP3     853      TP3      H1       HW       0.417000       1.00800           0
     14490 TIP3     853      TP3      H2       HW       0.417000       1.00800           0
     14491 TIP3     854      TP3      O        OW      -0.834000       16.0000           0
     14492 TIP3     854      TP3      H1       HW       0.417000       1.00800           0
     14493 TIP3     854      TP3      H2       HW       0.417000       1.00800           0
     14494 TIP3     855      TP3      O        OW      -0.834000       16.0000           0
     14495 TIP3     855      TP3      H1       HW       0.417000       1.00800           0
     14496 TIP3     855      TP3      H2       HW       0.417000       1.00800           0
     14497 TIP3     856      TP3      O        OW      -0.834000       16.0000           0
     14498 TIP3     856      TP3      H1       HW       0.417000       1.00800           0
     14499 TIP3     856      TP3      H2       HW       0.417000       1.00800           0
     14500 TIP3     857      TP3      O        OW      -0.834000       16.0000           0
     14501 TIP3     857      TP3      H1       HW       0.417000       1.00800           0
     14502 TIP3     857      TP3      H2       HW       0.417000       1.00800           0
     14503 TIP3     858      TP3      O        OW      -0.834000       16.0000           0
     14504 TIP3     858      TP3      H1       HW       0.417000       1.00800           0
     14505 TIP3     858      TP3      H2       HW       0.417000       1.00800           0
     14506 TIP3     859      TP3      O        OW      -0.834000       16.0000           0
     14507 TIP3     859      TP3      H1       HW       0.417000       1.00800           0
     14508 TIP3     859      TP3      H2       HW       0.417000       1.00800           0
     14509 TIP3     860      TP3      O        OW      -0.834000       16.0000           0
     14510 TIP3     860      TP3      H1       HW       0.417000       1.00800           0
     14511 TIP3     860      TP3      H2       HW       0.417000       1.00800           0
     14512 TIP3     861      TP3      O        OW      -0.834000       16.0000           0
     14513 TIP3     861      TP3      H1       HW       0.417000       1.00800           0
     14514 TIP3     861      TP3      H2       HW       0.417000       1.00800           0
     14515 TIP3     862      TP3      O        OW      -0.834000       16.0000           0
     14516 TIP3     862      TP3      H1       HW       0.417000       1.00800           0
     14517 TIP3     862      TP3      H2       HW       0.417000       1.00800           0
     14518 TIP3     863      TP3      O        OW      -0.834000       16.0000           0
     14519 TIP3     863      TP3      H1       HW       0.417000       1.00800           0
     14520 TIP3     863      TP3      H2       HW       0.417000       1.00800           0
     14521 TIP3     864      TP3      O        OW      -0.834000       16.0000           0
     14522 TIP3     864      TP3      H1       HW       0.417000       1.00800           0
     14523 TIP3     864      TP3      H2       HW       0.417000       1.00800           0
     14524 TIP3     865      TP3      O        OW      -0.834000       16.0000           0
     14525 TIP3     865      TP3      H1       HW       0.417000       1.00800           0
     14526 TIP3     865      TP3      H2       HW       0.417000       1.00800           0
     14527 TIP3     866      TP3      O        OW      -0.834000       16.0000           0
     14528 TIP3     866      TP3      H1       HW       0.417000       1.00800           0
     14529 TIP3     866      TP3      H2       HW       0.417000       1.00800           0
     14530 TIP3     867      TP3      O        OW      -0.834000       16.0000           0
     14531 TIP3     867      TP3      H1       HW       0.417000       1.00800           0
     14532 TIP3     867      TP3      H2       HW       0.417000       1.00800           0
     14533 TIP3     868      TP3      O        OW      -0.834000       16.0000           0
     14534 TIP3     868      TP3      H1       HW       0.417000       1.00800           0
     14535 TIP3     868      TP3      H2       HW       0.417000       1.00800           0
     14536 TIP3     869      TP3      O        OW      -0.834000       16.0000           0
     14537 TIP3     869      TP3      H1       HW       0.417000       1.00800           0
     14538 TIP3     869      TP3      H2       HW       0.417000       1.00800           0
     14539 TIP3     870      TP3      O        OW      -0.834000       16.0000           0
     14540 TIP3     870      TP3      H1       HW       0.417000       1.00800           0
     14541 TIP3     870      TP3      H2       HW       0.417000       1.00800           0
     14542 TIP3     871      TP3      O        OW      -0.834000       16.0000           0
     14543 TIP3     871      TP3      H1       HW       0.417000       1.00800           0
     14544 TIP3     871      TP3      H2       HW       0.417000       1.00800           0
     14545 TIP3     872      TP3      O        OW      -0.834000       16.0000           0
     14546 TIP3     872      TP3      H1       HW       0.417000       1.00800           0
     14547 TIP3     872      TP3      H2       HW       0.417000       1.00800           0
     14548 TIP3     873      TP3      O        OW      -0.834000       16.0000           0
     14549 TIP3     873      TP3      H1       HW       0.417000       1.00800           0
     14550 TIP3     873      TP3      H2       HW       0.417000       1.00800           0
     14551 TIP3     874      TP3      O        OW      -0.834000       16.0000           0
     14552 TIP3     874      TP3      H1       HW       0.417000       1.00800           0
     14553 TIP3     874      TP3      H2       HW       0.417000       1.00800           0
     14554 TIP3     875      TP3      O        OW      -0.834000       16.0000           0
     14555 TIP3     875      TP3      H1       HW       0.417000       1.00800           0
     14556 TIP3     875      TP3      H2       HW       0.417000       1.00800           0
     14557 TIP3     876      TP3      O        OW      -0.834000       16.0000           0
     14558 TIP3     876      TP3      H1       HW       0.417000       1.00800           0
     14559 TIP3     876      TP3      H2       HW       0.417000       1.00800           0
     14560 TIP3     877      TP3      O        OW      -0.834000       16.0000           0
     14561 TIP3     877      TP3      H1       HW       0.417000       1.00800           0
     14562 TIP3     877      TP3      H2       HW       0.417000       1.00800           0
     14563 TIP3     878      TP3      O        OW      -0.834000       16.0000           0
     14564 TIP3     878      TP3      H1       HW       0.417000       1.00800           0
     14565 TIP3     878      TP3      H2       HW       0.417000       1.00800           0
     14566 TIP3     879      TP3      O        OW      -0.834000       16.0000           0
     14567 TIP3     879      TP3      H1       HW       0.417000       1.00800           0
     14568 TIP3     879      TP3      H2       HW       0.417000       1.00800           0
     14569 TIP3     880      TP3      O        OW      -0.834000       16.0000           0
     14570 TIP3     880      TP3      H1       HW       0.417000       1.00800           0
     14571 TIP3     880      TP3      H2       HW       0.417000       1.00800           0
     14572 TIP3     881      TP3      O        OW      -0.834000       16.0000           0
     14573 TIP3     881      TP3      H1       HW       0.417000       1.00800           0
     14574 TIP3     881      TP3      H2       HW       0.417000       1.00800           0
     14575 TIP3     882      TP3      O        OW      -0.834000       16.0000           0
     14576 TIP3     882      TP3      H1       HW       0.417000       1.00800           0
     14577 TIP3     882      TP3      H2       HW       0.417000       1.00800           0
     14578 TIP3     883      TP3      O        OW      -0.834000       16.0000           0
     14579 TIP3     883      TP3      H1       HW       0.417000       1.00800           0
     14580 TIP3     883      TP3      H2       HW       0.417000       1.00800           0
     14581 TIP3     884      TP3      O        OW      -0.834000       16.0000           0
     14582 TIP3     884      TP3      H1       HW       0.417000       1.00800           0
     14583 TIP3     884      TP3      H2       HW       0.417000       1.00800           0
     14584 TIP3     885      TP3      O        OW      -0.834000       16.0000           0
     14585 TIP3     885      TP3      H1       HW       0.417000       1.00800           0
     14586 TIP3     885      TP3      H2       HW       0.417000       1.00800           0
     14587 TIP3     886      TP3      O        OW      -0.834000       16.0000           0
     14588 TIP3     886      TP3      H1       HW       0.417000       1.00800           0
     14589 TIP3     886      TP3      H2       HW       0.417000       1.00800           0
     14590 TIP3     887      TP3      O        OW      -0.834000       16.0000           0
     14591 TIP3     887      TP3      H1       HW       0.417000       1.00800           0
     14592 TIP3     887      TP3      H2       HW       0.417000       1.00800           0
     14593 TIP3     888      TP3      O        OW      -0.834000       16.0000           0
     14594 TIP3     888      TP3      H1       HW       0.417000       1.00800           0
     14595 TIP3     888      TP3      H2       HW       0.417000       1.00800           0
     14596 TIP3     889      TP3      O        OW      -0.834000       16.0000           0
     14597 TIP3     889      TP3      H1       HW       0.417000       1.00800           0
     14598 TIP3     889      TP3      H2       HW       0.417000       1.00800           0
     14599 TIP3     890      TP3      O        OW      -0.834000       16.0000           0
     14600 TIP3     890      TP3      H1       HW       0.417000       1.00800           0
     14601 TIP3     890      TP3      H2       HW       0.417000       1.00800           0
     14602 TIP3     891      TP3      O        OW      -0.834000       16.0000           0
     14603 TIP3     891      TP3      H1       HW       0.417000       1.00800           0
     14604 TIP3     891      TP3      H2       HW       0.417000       1.00800           0
     14605 TIP3     892      TP3      O        OW      -0.834000       16.0000           0
     14606 TIP3     892      TP3      H1       HW       0.417000       1.00800           0
     14607 TIP3     892      TP3      H2       HW       0.417000       1.00800           0
     14608 TIP3     893      TP3      O        OW      -0.834000       16.0000           0
     14609 TIP3     893      TP3      H1       HW       0.417000       1.00800           0
     14610 TIP3     893      TP3      H2       HW       0.417000       1.00800           0
     14611 TIP3     894      TP3      O        OW      -0.834000       16.0000           0
     14612 TIP3     894      TP3      H1       HW       0.417000       1.00800           0
     14613 TIP3     894      TP3      H2       HW       0.417000       1.00800           0
     14614 TIP3     895      TP3      O        OW      -0.834000       16.0000           0
     14615 TIP3     895      TP3      H1       HW       0.417000       1.00800           0
     14616 TIP3     895      TP3      H2       HW       0.417000       1.00800           0
     14617 TIP3     896      TP3      O        OW      -0.834000       16.0000           0
     14618 TIP3     896      TP3      H1       HW       0.417000       1.00800           0
     14619 TIP3     896      TP3      H2       HW       0.417000       1.00800           0
     14620 TIP3     897      TP3      O        OW      -0.834000       16.0000           0
     14621 TIP3     897      TP3      H1       HW       0.417000       1.00800           0
     14622 TIP3     897      TP3      H2       HW       0.417000       1.00800           0
     14623 TIP3     898      TP3      O        OW      -0.834000       16.0000           0
     14624 TIP3     898      TP3      H1       HW       0.417000       1.00800           0
     14625 TIP3     898      TP3      H2       HW       0.417000       1.00800           0
     14626 TIP3     899      TP3      O        OW      -0.834000       16.0000           0
     14627 TIP3     899      TP3      H1       HW       0.417000       1.00800           0
     14628 TIP3     899      TP3      H2       HW       0.417000       1.00800           0
     14629 TIP3     900      TP3      O        OW      -0.834000       16.0000           0
     14630 TIP3     900      TP3      H1       HW       0.417000       1.00800           0
     14631 TIP3     900      TP3      H2       HW       0.417000       1.00800           0
     14632 TIP3     901      TP3      O        OW      -0.834000       16.0000           0
     14633 TIP3     901      TP3      H1       HW       0.417000       1.00800           0
     14634 TIP3     901      TP3      H2       HW       0.417000       1.00800           0
     14635 TIP3     902      TP3      O        OW      -0.834000       16.0000           0
     14636 TIP3     902      TP3      H1       HW       0.417000       1.00800           0
     14637 TIP3     902      TP3      H2       HW       0.417000       1.00800           0
     14638 TIP3     903      TP3      O        OW      -0.834000       16.0000           0
     14639 TIP3     903      TP3      H1       HW       0.417000       1.00800           0
     14640 TIP3     903      TP3      H2       HW       0.417000       1.00800           0
     14641 TIP3     904      TP3      O        OW      -0.834000       16.0000           0
     14642 TIP3     904      TP3      H1       HW       0.417000       1.00800           0
     14643 TIP3     904      TP3      H2       HW       0.417000       1.00800           0
     14644 TIP3     905      TP3      O        OW      -0.834000       16.0000           0
     14645 TIP3     905      TP3      H1       HW       0.417000       1.00800           0
     14646 TIP3     905      TP3      H2       HW       0.417000       1.00800           0
     14647 TIP3     906      TP3      O        OW      -0.834000       16.0000           0
     14648 TIP3     906      TP3      H1       HW       0.417000       1.00800           0
     14649 TIP3     906      TP3      H2       HW       0.417000       1.00800           0
     14650 TIP3     907      TP3      O        OW      -0.834000       16.0000           0
     14651 TIP3     907      TP3      H1       HW       0.417000       1.00800           0
     14652 TIP3     907      TP3      H2       HW       0.417000       1.00800           0
     14653 TIP3     908      TP3      O        OW      -0.834000       16.0000           0
     14654 TIP3     908      TP3      H1       HW       0.417000       1.00800           0
     14655 TIP3     908      TP3      H2       HW       0.417000       1.00800           0
     14656 TIP3     909      TP3      O        OW      -0.834000       16.0000           0
     14657 TIP3     909      TP3      H1       HW       0.417000       1.00800           0
     14658 TIP3     909      TP3      H2       HW       0.417000       1.00800           0
     14659 TIP3     910      TP3      O        OW      -0.834000       16.0000           0
     14660 TIP3     910      TP3      H1       HW       0.417000       1.00800           0
     14661 TIP3     910      TP3      H2       HW       0.417000       1.00800           0
     14662 TIP3     911      TP3      O        OW      -0.834000       16.0000           0
     14663 TIP3     911      TP3      H1       HW       0.417000       1.00800           0
     14664 TIP3     911      TP3      H2       HW       0.417000       1.00800           0
     14665 TIP3     912      TP3      O        OW      -0.834000       16.0000           0
     14666 TIP3     912      TP3      H1       HW       0.417000       1.00800           0
     14667 TIP3     912      TP3      H2       HW       0.417000       1.00800           0
     14668 TIP3     913      TP3      O        OW      -0.834000       16.0000           0
     14669 TIP3     913      TP3      H1       HW       0.417000       1.00800           0
     14670 TIP3     913      TP3      H2       HW       0.417000       1.00800           0
     14671 TIP3     914      TP3      O        OW      -0.834000       16.0000           0
     14672 TIP3     914      TP3      H1       HW       0.417000       1.00800           0
     14673 TIP3     914      TP3      H2       HW       0.417000       1.00800           0
     14674 TIP3     915      TP3      O        OW      -0.834000       16.0000           0
     14675 TIP3     915      TP3      H1       HW       0.417000       1.00800           0
     14676 TIP3     915      TP3      H2       HW       0.417000       1.00800           0
     14677 TIP3     916      TP3      O        OW      -0.834000       16.0000           0
     14678 TIP3     916      TP3      H1       HW       0.417000       1.00800           0
     14679 TIP3     916      TP3      H2       HW       0.417000       1.00800           0
     14680 TIP3     917      TP3      O        OW      -0.834000       16.0000           0
     14681 TIP3     917      TP3      H1       HW       0.417000       1.00800           0
     14682 TIP3     917      TP3      H2       HW       0.417000       1.00800           0
     14683 TIP3     918      TP3      O        OW      -0.834000       16.0000           0
     14684 TIP3     918      TP3      H1       HW       0.417000       1.00800           0
     14685 TIP3     918      TP3      H2       HW       0.417000       1.00800           0
     14686 TIP3     919      TP3      O        OW      -0.834000       16.0000           0
     14687 TIP3     919      TP3      H1       HW       0.417000       1.00800           0
     14688 TIP3     919      TP3      H2       HW       0.417000       1.00800           0
     14689 TIP3     920      TP3      O        OW      -0.834000       16.0000           0
     14690 TIP3     920      TP3      H1       HW       0.417000       1.00800           0
     14691 TIP3     920      TP3      H2       HW       0.417000       1.00800           0
     14692 TIP3     921      TP3      O        OW      -0.834000       16.0000           0
     14693 TIP3     921      TP3      H1       HW       0.417000       1.00800           0
     14694 TIP3     921      TP3      H2       HW       0.417000       1.00800           0
     14695 TIP3     922      TP3      O        OW      -0.834000       16.0000           0
     14696 TIP3     922      TP3      H1       HW       0.417000       1.00800           0
     14697 TIP3     922      TP3      H2       HW       0.417000       1.00800           0
     14698 TIP3     923      TP3      O        OW      -0.834000       16.0000           0
     14699 TIP3     923      TP3      H1       HW       0.417000       1.00800           0
     14700 TIP3     923      TP3      H2       HW       0.417000       1.00800           0
     14701 TIP3     924      TP3      O        OW      -0.834000       16.0000           0
     14702 TIP3     924      TP3      H1       HW       0.417000       1.00800           0
     14703 TIP3     924      TP3      H2       HW       0.417000       1.00800           0
     14704 TIP3     925      TP3      O        OW      -0.834000       16.0000           0
     14705 TIP3     925      TP3      H1       HW       0.417000       1.00800           0
     14706 TIP3     925      TP3      H2       HW       0.417000       1.00800           0
     14707 TIP3     926      TP3      O        OW      -0.834000       16.0000           0
     14708 TIP3     926      TP3      H1       HW       0.417000       1.00800           0
     14709 TIP3     926      TP3      H2       HW       0.417000       1.00800           0
     14710 TIP3     927      TP3      O        OW      -0.834000       16.0000           0
     14711 TIP3     927      TP3      H1       HW       0.417000       1.00800           0
     14712 TIP3     927      TP3      H2       HW       0.417000       1.00800           0
     14713 TIP3     928      TP3      O        OW      -0.834000       16.0000           0
     14714 TIP3     928      TP3      H1       HW       0.417000       1.00800           0
     14715 TIP3     928      TP3      H2       HW       0.417000       1.00800           0
     14716 TIP3     929      TP3      O        OW      -0.834000       16.0000           0
     14717 TIP3     929      TP3      H1       HW       0.417000       1.00800           0
     14718 TIP3     929      TP3      H2       HW       0.417000       1.00800           0
     14719 TIP3     930      TP3      O        OW      -0.834000       16.0000           0
     14720 TIP3     930      TP3      H1       HW       0.417000       1.00800           0
     14721 TIP3     930      TP3      H2       HW       0.417000       1.00800           0
     14722 TIP3     931      TP3      O        OW      -0.834000       16.0000           0
     14723 TIP3     931      TP3      H1       HW       0.417000       1.00800           0
     14724 TIP3     931      TP3      H2       HW       0.417000       1.00800           0
     14725 TIP3     932      TP3      O        OW      -0.834000       16.0000           0
     14726 TIP3     932      TP3      H1       HW       0.417000       1.00800           0
     14727 TIP3     932      TP3      H2       HW       0.417000       1.00800           0
     14728 TIP3     933      TP3      O        OW      -0.834000       16.0000           0
     14729 TIP3     933      TP3      H1       HW       0.417000       1.00800           0
     14730 TIP3     933      TP3      H2       HW       0.417000       1.00800           0
     14731 TIP3     934      TP3      O        OW      -0.834000       16.0000           0
     14732 TIP3     934      TP3      H1       HW       0.417000       1.00800           0
     14733 TIP3     934      TP3      H2       HW       0.417000       1.00800           0
     14734 TIP3     935      TP3      O        OW      -0.834000       16.0000           0
     14735 TIP3     935      TP3      H1       HW       0.417000       1.00800           0
     14736 TIP3     935      TP3      H2       HW       0.417000       1.00800           0
     14737 TIP3     936      TP3      O        OW      -0.834000       16.0000           0
     14738 TIP3     936      TP3      H1       HW       0.417000       1.00800           0
     14739 TIP3     936      TP3      H2       HW       0.417000       1.00800           0
     14740 TIP3     937      TP3      O        OW      -0.834000       16.0000           0
     14741 TIP3     937      TP3      H1       HW       0.417000       1.00800           0
     14742 TIP3     937      TP3      H2       HW       0.417000       1.00800           0
     14743 TIP3     938      TP3      O        OW      -0.834000       16.0000           0
     14744 TIP3     938      TP3      H1       HW       0.417000       1.00800           0
     14745 TIP3     938      TP3      H2       HW       0.417000       1.00800           0
     14746 TIP3     939      TP3      O        OW      -0.834000       16.0000           0
     14747 TIP3     939      TP3      H1       HW       0.417000       1.00800           0
     14748 TIP3     939      TP3      H2       HW       0.417000       1.00800           0
     14749 TIP3     940      TP3      O        OW      -0.834000       16.0000           0
     14750 TIP3     940      TP3      H1       HW       0.417000       1.00800           0
     14751 TIP3     940      TP3      H2       HW       0.417000       1.00800           0
     14752 TIP3     941      TP3      O        OW      -0.834000       16.0000           0
     14753 TIP3     941      TP3      H1       HW       0.417000       1.00800           0
     14754 TIP3     941      TP3      H2       HW       0.417000       1.00800           0
     14755 TIP3     942      TP3      O        OW      -0.834000       16.0000           0
     14756 TIP3     942      TP3      H1       HW       0.417000       1.00800           0
     14757 TIP3     942      TP3      H2       HW       0.417000       1.00800           0
     14758 TIP3     943      TP3      O        OW      -0.834000       16.0000           0
     14759 TIP3     943      TP3      H1       HW       0.417000       1.00800           0
     14760 TIP3     943      TP3      H2       HW       0.417000       1.00800           0
     14761 TIP3     944      TP3      O        OW      -0.834000       16.0000           0
     14762 TIP3     944      TP3      H1       HW       0.417000       1.00800           0
     14763 TIP3     944      TP3      H2       HW       0.417000       1.00800           0
     14764 TIP3     945      TP3      O        OW      -0.834000       16.0000           0
     14765 TIP3     945      TP3      H1       HW       0.417000       1.00800           0
     14766 TIP3     945      TP3      H2       HW       0.417000       1.00800           0
     14767 TIP3     946      TP3      O        OW      -0.834000       16.0000           0
     14768 TIP3     946      TP3      H1       HW       0.417000       1.00800           0
     14769 TIP3     946      TP3      H2       HW       0.417000       1.00800           0
     14770 TIP3     947      TP3      O        OW      -0.834000       16.0000           0
     14771 TIP3     947      TP3      H1       HW       0.417000       1.00800           0
     14772 TIP3     947      TP3      H2       HW       0.417000       1.00800           0
     14773 TIP3     948      TP3      O        OW      -0.834000       16.0000           0
     14774 TIP3     948      TP3      H1       HW       0.417000       1.00800           0
     14775 TIP3     948      TP3      H2       HW       0.417000       1.00800           0
     14776 TIP3     949      TP3      O        OW      -0.834000       16.0000           0
     14777 TIP3     949      TP3      H1       HW       0.417000       1.00800           0
     14778 TIP3     949      TP3      H2       HW       0.417000       1.00800           0
     14779 TIP3     950      TP3      O        OW      -0.834000       16.0000           0
     14780 TIP3     950      TP3      H1       HW       0.417000       1.00800           0
     14781 TIP3     950      TP3      H2       HW       0.417000       1.00800           0
     14782 TIP3     951      TP3      O        OW      -0.834000       16.0000           0
     14783 TIP3     951      TP3      H1       HW       0.417000       1.00800           0
     14784 TIP3     951      TP3      H2       HW       0.417000       1.00800           0
     14785 TIP3     952      TP3      O        OW      -0.834000       16.0000           0
     14786 TIP3     952      TP3      H1       HW       0.417000       1.00800           0
     14787 TIP3     952      TP3      H2       HW       0.417000       1.00800           0
     14788 TIP3     953      TP3      O        OW      -0.834000       16.0000           0
     14789 TIP3     953      TP3      H1       HW       0.417000       1.00800           0
     14790 TIP3     953      TP3      H2       HW       0.417000       1.00800           0
     14791 TIP3     954      TP3      O        OW      -0.834000       16.0000           0
     14792 TIP3     954      TP3      H1       HW       0.417000       1.00800           0
     14793 TIP3     954      TP3      H2       HW       0.417000       1.00800           0
     14794 TIP3     955      TP3      O        OW      -0.834000       16.0000           0
     14795 TIP3     955      TP3      H1       HW       0.417000       1.00800           0
     14796 TIP3     955      TP3      H2       HW       0.417000       1.00800           0
     14797 TIP3     956      TP3      O        OW      -0.834000       16.0000           0
     14798 TIP3     956      TP3      H1       HW       0.417000       1.00800           0
     14799 TIP3     956      TP3      H2       HW       0.417000       1.00800           0
     14800 TIP3     957      TP3      O        OW      -0.834000       16.0000           0
     14801 TIP3     957      TP3      H1       HW       0.417000       1.00800           0
     14802 TIP3     957      TP3      H2       HW       0.417000       1.00800           0
     14803 TIP3     958      TP3      O        OW      -0.834000       16.0000           0
     14804 TIP3     958      TP3      H1       HW       0.417000       1.00800           0
     14805 TIP3     958      TP3      H2       HW       0.417000       1.00800           0
     14806 TIP3     959      TP3      O        OW      -0.834000       16.0000           0
     14807 TIP3     959      TP3      H1       HW       0.417000       1.00800           0
     14808 TIP3     959      TP3      H2       HW       0.417000       1.00800           0
     14809 TIP3     960      TP3      O        OW      -0.834000       16.0000           0
     14810 TIP3     960      TP3      H1       HW       0.417000       1.00800           0
     14811 TIP3     960      TP3      H2       HW       0.417000       1.00800           0
     14812 TIP3     961      TP3      O        OW      -0.834000       16.0000           0
     14813 TIP3     961      TP3      H1       HW       0.417000       1.00800           0
     14814 TIP3     961      TP3      H2       HW       0.417000       1.00800           0
     14815 TIP3     962      TP3      O        OW      -0.834000       16.0000           0
     14816 TIP3     962      TP3      H1       HW       0.417000       1.00800           0
     14817 TIP3     962      TP3      H2       HW       0.417000       1.00800           0
     14818 TIP3     963      TP3      O        OW      -0.834000       16.0000           0
     14819 TIP3     963      TP3      H1       HW       0.417000       1.00800           0
     14820 TIP3     963      TP3      H2       HW       0.417000       1.00800           0
     14821 TIP3     964      TP3      O        OW      -0.834000       16.0000           0
     14822 TIP3     964      TP3      H1       HW       0.417000       1.00800           0
     14823 TIP3     964      TP3      H2       HW       0.417000       1.00800           0
     14824 TIP3     965      TP3      O        OW      -0.834000       16.0000           0
     14825 TIP3     965      TP3      H1       HW       0.417000       1.00800           0
     14826 TIP3     965      TP3      H2       HW       0.417000       1.00800           0
     14827 TIP3     966      TP3      O        OW      -0.834000       16.0000           0
     14828 TIP3     966      TP3      H1       HW       0.417000       1.00800           0
     14829 TIP3     966      TP3      H2       HW       0.417000       1.00800           0
     14830 TIP3     967      TP3      O        OW      -0.834000       16.0000           0
     14831 TIP3     967      TP3      H1       HW       0.417000       1.00800           0
     14832 TIP3     967      TP3      H2       HW       0.417000       1.00800           0
     14833 TIP3     968      TP3      O        OW      -0.834000       16.0000           0
     14834 TIP3     968      TP3      H1       HW       0.417000       1.00800           0
     14835 TIP3     968      TP3      H2       HW       0.417000       1.00800           0
     14836 TIP3     969      TP3      O        OW      -0.834000       16.0000           0
     14837 TIP3     969      TP3      H1       HW       0.417000       1.00800           0
     14838 TIP3     969      TP3      H2       HW       0.417000       1.00800           0
     14839 TIP3     970      TP3      O        OW      -0.834000       16.0000           0
     14840 TIP3     970      TP3      H1       HW       0.417000       1.00800           0
     14841 TIP3     970      TP3      H2       HW       0.417000       1.00800           0
     14842 TIP3     971      TP3      O        OW      -0.834000       16.0000           0
     14843 TIP3     971      TP3      H1       HW       0.417000       1.00800           0
     14844 TIP3     971      TP3      H2       HW       0.417000       1.00800           0
     14845 TIP3     972      TP3      O        OW      -0.834000       16.0000           0
     14846 TIP3     972      TP3      H1       HW       0.417000       1.00800           0
     14847 TIP3     972      TP3      H2       HW       0.417000       1.00800           0
     14848 TIP3     973      TP3      O        OW      -0.834000       16.0000           0
     14849 TIP3     973      TP3      H1       HW       0.417000       1.00800           0
     14850 TIP3     973      TP3      H2       HW       0.417000       1.00800           0
     14851 TIP3     974      TP3      O        OW      -0.834000       16.0000           0
     14852 TIP3     974      TP3      H1       HW       0.417000       1.00800           0
     14853 TIP3     974      TP3      H2       HW       0.417000       1.00800           0
     14854 TIP3     975      TP3      O        OW      -0.834000       16.0000           0
     14855 TIP3     975      TP3      H1       HW       0.417000       1.00800           0
     14856 TIP3     975      TP3      H2       HW       0.417000       1.00800           0
     14857 TIP3     976      TP3      O        OW      -0.834000       16.0000           0
     14858 TIP3     976      TP3      H1       HW       0.417000       1.00800           0
     14859 TIP3     976      TP3      H2       HW       0.417000       1.00800           0
     14860 TIP3     977      TP3      O        OW      -0.834000       16.0000           0
     14861 TIP3     977      TP3      H1       HW       0.417000       1.00800           0
     14862 TIP3     977      TP3      H2       HW       0.417000       1.00800           0
     14863 TIP3     978      TP3      O        OW      -0.834000       16.0000           0
     14864 TIP3     978      TP3      H1       HW       0.417000       1.00800           0
     14865 TIP3     978      TP3      H2       HW       0.417000       1.00800           0
     14866 TIP3     979      TP3      O        OW      -0.834000       16.0000           0
     14867 TIP3     979      TP3      H1       HW       0.417000       1.00800           0
     14868 TIP3     979      TP3      H2       HW       0.417000       1.00800           0
     14869 TIP3     980      TP3      O        OW      -0.834000       16.0000           0
     14870 TIP3     980      TP3      H1       HW       0.417000       1.00800           0
     14871 TIP3     980      TP3      H2       HW       0.417000       1.00800           0
     14872 TIP3     981      TP3      O        OW      -0.834000       16.0000           0
     14873 TIP3     981      TP3      H1       HW       0.417000       1.00800           0
     14874 TIP3     981      TP3      H2       HW       0.417000       1.00800           0
     14875 TIP3     982      TP3      O        OW      -0.834000       16.0000           0
     14876 TIP3     982      TP3      H1       HW       0.417000       1.00800           0
     14877 TIP3     982      TP3      H2       HW       0.417000       1.00800           0
     14878 TIP3     983      TP3      O        OW      -0.834000       16.0000           0
     14879 TIP3     983      TP3      H1       HW       0.417000       1.00800           0
     14880 TIP3     983      TP3      H2       HW       0.417000       1.00800           0
     14881 TIP3     984      TP3      O        OW      -0.834000       16.0000           0
     14882 TIP3     984      TP3      H1       HW       0.417000       1.00800           0
     14883 TIP3     984      TP3      H2       HW       0.417000       1.00800           0
     14884 TIP3     985      TP3      O        OW      -0.834000       16.0000           0
     14885 TIP3     985      TP3      H1       HW       0.417000       1.00800           0
     14886 TIP3     985      TP3      H2       HW       0.417000       1.00800           0
     14887 TIP3     986      TP3      O        OW      -0.834000       16.0000           0
     14888 TIP3     986      TP3      H1       HW       0.417000       1.00800           0
     14889 TIP3     986      TP3      H2       HW       0.417000       1.00800           0
     14890 TIP3     987      TP3      O        OW      -0.834000       16.0000           0
     14891 TIP3     987      TP3      H1       HW       0.417000       1.00800           0
     14892 TIP3     987      TP3      H2       HW       0.417000       1.00800           0
     14893 TIP3     988      TP3      O        OW      -0.834000       16.0000           0
     14894 TIP3     988      TP3      H1       HW       0.417000       1.00800           0
     14895 TIP3     988      TP3      H2       HW       0.417000       1.00800           0
     14896 TIP3     989      TP3      O        OW      -0.834000       16.0000           0
     14897 TIP3     989      TP3      H1       HW       0.417000       1.00800           0
     14898 TIP3     989      TP3      H2       HW       0.417000       1.00800           0
     14899 TIP3     990      TP3      O        OW      -0.834000       16.0000           0
     14900 TIP3     990      TP3      H1       HW       0.417000       1.00800           0
     14901 TIP3     990      TP3      H2       HW       0.417000       1.00800           0
     14902 TIP3     991      TP3      O        OW      -0.834000       16.0000           0
     14903 TIP3     991      TP3      H1       HW       0.417000       1.00800           0
     14904 TIP3     991      TP3      H2       HW       0.417000       1.00800           0
     14905 TIP3     992      TP3      O        OW      -0.834000       16.0000           0
     14906 TIP3     992      TP3      H1       HW       0.417000       1.00800           0
     14907 TIP3     992      TP3      H2       HW       0.417000       1.00800           0
     14908 TIP3     993      TP3      O        OW      -0.834000       16.0000           0
     14909 TIP3     993      TP3      H1       HW       0.417000       1.00800           0
     14910 TIP3     993      TP3      H2       HW       0.417000       1.00800           0
     14911 TIP3     994      TP3      O        OW      -0.834000       16.0000           0
     14912 TIP3     994      TP3      H1       HW       0.417000       1.00800           0
     14913 TIP3     994      TP3      H2       HW       0.417000       1.00800           0
     14914 TIP3     995      TP3      O        OW      -0.834000       16.0000           0
     14915 TIP3     995      TP3      H1       HW       0.417000       1.00800           0
     14916 TIP3     995      TP3      H2       HW       0.417000       1.00800           0
     14917 TIP3     996      TP3      O        OW      -0.834000       16.0000           0
     14918 TIP3     996      TP3      H1       HW       0.417000       1.00800           0
     14919 TIP3     996      TP3      H2       HW       0.417000       1.00800           0
     14920 TIP3     997      TP3      O        OW      -0.834000       16.0000           0
     14921 TIP3     997      TP3      H1       HW       0.417000       1.00800           0
     14922 TIP3     997      TP3      H2       HW       0.417000       1.00800           0
     14923 TIP3     998      TP3      O        OW      -0.834000       16.0000           0
     14924 TIP3     998      TP3      H1       HW       0.417000       1.00800           0
     14925 TIP3     998      TP3      H2       HW       0.417000       1.00800           0
     14926 TIP3     999      TP3      O        OW      -0.834000       16.0000           0
     14927 TIP3     999      TP3      H1       HW       0.417000       1.00800           0
     14928 TIP3     999      TP3      H2       HW       0.417000       1.00800           0
     14929 TIP3     1000     TP3      O        OW      -0.834000       16.0000           0
     14930 TIP3     1000     TP3      H1       HW       0.417000       1.00800           0
     14931 TIP3     1000     TP3      H2       HW       0.417000       1.00800           0
     14932 TIP3     1001     TP3      O        OW      -0.834000       16.0000           0
     14933 TIP3     1001     TP3      H1       HW       0.417000       1.00800           0
     14934 TIP3     1001     TP3      H2       HW       0.417000       1.00800           0
     14935 TIP3     1002     TP3      O        OW      -0.834000       16.0000           0
     14936 TIP3     1002     TP3      H1       HW       0.417000       1.00800           0
     14937 TIP3     1002     TP3      H2       HW       0.417000       1.00800           0
     14938 TIP3     1003     TP3      O        OW      -0.834000       16.0000           0
     14939 TIP3     1003     TP3      H1       HW       0.417000       1.00800           0
     14940 TIP3     1003     TP3      H2       HW       0.417000       1.00800           0
     14941 TIP3     1004     TP3      O        OW      -0.834000       16.0000           0
     14942 TIP3     1004     TP3      H1       HW       0.417000       1.00800           0
     14943 TIP3     1004     TP3      H2       HW       0.417000       1.00800           0
     14944 TIP3     1005     TP3      O        OW      -0.834000       16.0000           0
     14945 TIP3     1005     TP3      H1       HW       0.417000       1.00800           0
     14946 TIP3     1005     TP3      H2       HW       0.417000       1.00800           0
     14947 TIP3     1006     TP3      O        OW      -0.834000       16.0000           0
     14948 TIP3     1006     TP3      H1       HW       0.417000       1.00800           0
     14949 TIP3     1006     TP3      H2       HW       0.417000       1.00800           0
     14950 TIP3     1007     TP3      O        OW      -0.834000       16.0000           0
     14951 TIP3     1007     TP3      H1       HW       0.417000       1.00800           0
     14952 TIP3     1007     TP3      H2       HW       0.417000       1.00800           0
     14953 TIP3     1008     TP3      O        OW      -0.834000       16.0000           0
     14954 TIP3     1008     TP3      H1       HW       0.417000       1.00800           0
     14955 TIP3     1008     TP3      H2       HW       0.417000       1.00800           0
     14956 TIP3     1009     TP3      O        OW      -0.834000       16.0000           0
     14957 TIP3     1009     TP3      H1       HW       0.417000       1.00800           0
     14958 TIP3     1009     TP3      H2       HW       0.417000       1.00800           0
     14959 TIP3     1010     TP3      O        OW      -0.834000       16.0000           0
     14960 TIP3     1010     TP3      H1       HW       0.417000       1.00800           0
     14961 TIP3     1010     TP3      H2       HW       0.417000       1.00800           0
     14962 TIP3     1011     TP3      O        OW      -0.834000       16.0000           0
     14963 TIP3     1011     TP3      H1       HW       0.417000       1.00800           0
     14964 TIP3     1011     TP3      H2       HW       0.417000       1.00800           0
     14965 TIP3     1012     TP3      O        OW      -0.834000       16.0000           0
     14966 TIP3     1012     TP3      H1       HW       0.417000       1.00800           0
     14967 TIP3     1012     TP3      H2       HW       0.417000       1.00800           0
     14968 TIP3     1013     TP3      O        OW      -0.834000       16.0000           0
     14969 TIP3     1013     TP3      H1       HW       0.417000       1.00800           0
     14970 TIP3     1013     TP3      H2       HW       0.417000       1.00800           0
     14971 TIP3     1014     TP3      O        OW      -0.834000       16.0000           0
     14972 TIP3     1014     TP3      H1       HW       0.417000       1.00800           0
     14973 TIP3     1014     TP3      H2       HW       0.417000       1.00800           0
     14974 TIP3     1015     TP3      O        OW      -0.834000       16.0000           0
     14975 TIP3     1015     TP3      H1       HW       0.417000       1.00800           0
     14976 TIP3     1015     TP3      H2       HW       0.417000       1.00800           0
     14977 TIP3     1016     TP3      O        OW      -0.834000       16.0000           0
     14978 TIP3     1016     TP3      H1       HW       0.417000       1.00800           0
     14979 TIP3     1016     TP3      H2       HW       0.417000       1.00800           0
     14980 TIP3     1017     TP3      O        OW      -0.834000       16.0000           0
     14981 TIP3     1017     TP3      H1       HW       0.417000       1.00800           0
     14982 TIP3     1017     TP3      H2       HW       0.417000       1.00800           0
     14983 TIP3     1018     TP3      O        OW      -0.834000       16.0000           0
     14984 TIP3     1018     TP3      H1       HW       0.417000       1.00800           0
     14985 TIP3     1018     TP3      H2       HW       0.417000       1.00800           0
     14986 TIP3     1019     TP3      O        OW      -0.834000       16.0000           0
     14987 TIP3     1019     TP3      H1       HW       0.417000       1.00800           0
     14988 TIP3     1019     TP3      H2       HW       0.417000       1.00800           0
     14989 TIP3     1020     TP3      O        OW      -0.834000       16.0000           0
     14990 TIP3     1020     TP3      H1       HW       0.417000       1.00800           0
     14991 TIP3     1020     TP3      H2       HW       0.417000       1.00800           0
     14992 TIP3     1021     TP3      O        OW      -0.834000       16.0000           0
     14993 TIP3     1021     TP3      H1       HW       0.417000       1.00800           0
     14994 TIP3     1021     TP3      H2       HW       0.417000       1.00800           0
     14995 TIP3     1022     TP3      O        OW      -0.834000       16.0000           0
     14996 TIP3     1022     TP3      H1       HW       0.417000       1.00800           0
     14997 TIP3     1022     TP3      H2       HW       0.417000       1.00800           0
     14998 TIP3     1023     TP3      O        OW      -0.834000       16.0000           0
     14999 TIP3     1023     TP3      H1       HW       0.417000       1.00800           0
     15000 TIP3     1023     TP3      H2       HW       0.417000       1.00800           0
     15001 TIP3     1024     TP3      O        OW      -0.834000       16.0000           0
     15002 TIP3     1024     TP3      H1       HW       0.417000       1.00800           0
     15003 TIP3     1024     TP3      H2       HW       0.417000       1.00800           0
     15004 TIP3     1025     TP3      O        OW      -0.834000       16.0000           0
     15005 TIP3     1025     TP3      H1       HW       0.417000       1.00800           0
     15006 TIP3     1025     TP3      H2       HW       0.417000       1.00800           0
     15007 TIP3     1026     TP3      O        OW      -0.834000       16.0000           0
     15008 TIP3     1026     TP3      H1       HW       0.417000       1.00800           0
     15009 TIP3     1026     TP3      H2       HW       0.417000       1.00800           0
     15010 TIP3     1027     TP3      O        OW      -0.834000       16.0000           0
     15011 TIP3     1027     TP3      H1       HW       0.417000       1.00800           0
     15012 TIP3     1027     TP3      H2       HW       0.417000       1.00800           0
     15013 TIP3     1028     TP3      O        OW      -0.834000       16.0000           0
     15014 TIP3     1028     TP3      H1       HW       0.417000       1.00800           0
     15015 TIP3     1028     TP3      H2       HW       0.417000       1.00800           0
     15016 TIP3     1029     TP3      O        OW      -0.834000       16.0000           0
     15017 TIP3     1029     TP3      H1       HW       0.417000       1.00800           0
     15018 TIP3     1029     TP3      H2       HW       0.417000       1.00800           0
     15019 TIP3     1030     TP3      O        OW      -0.834000       16.0000           0
     15020 TIP3     1030     TP3      H1       HW       0.417000       1.00800           0
     15021 TIP3     1030     TP3      H2       HW       0.417000       1.00800           0
     15022 TIP3     1031     TP3      O        OW      -0.834000       16.0000           0
     15023 TIP3     1031     TP3      H1       HW       0.417000       1.00800           0
     15024 TIP3     1031     TP3      H2       HW       0.417000       1.00800           0
     15025 TIP3     1032     TP3      O        OW      -0.834000       16.0000           0
     15026 TIP3     1032     TP3      H1       HW       0.417000       1.00800           0
     15027 TIP3     1032     TP3      H2       HW       0.417000       1.00800           0
     15028 TIP3     1033     TP3      O        OW      -0.834000       16.0000           0
     15029 TIP3     1033     TP3      H1       HW       0.417000       1.00800           0
     15030 TIP3     1033     TP3      H2       HW       0.417000       1.00800           0
     15031 TIP3     1034     TP3      O        OW      -0.834000       16.0000           0
     15032 TIP3     1034     TP3      H1       HW       0.417000       1.00800           0
     15033 TIP3     1034     TP3      H2       HW       0.417000       1.00800           0
     15034 TIP3     1035     TP3      O        OW      -0.834000       16.0000           0
     15035 TIP3     1035     TP3      H1       HW       0.417000       1.00800           0
     15036 TIP3     1035     TP3      H2       HW       0.417000       1.00800           0
     15037 TIP3     1036     TP3      O        OW      -0.834000       16.0000           0
     15038 TIP3     1036     TP3      H1       HW       0.417000       1.00800           0
     15039 TIP3     1036     TP3      H2       HW       0.417000       1.00800           0
     15040 TIP3     1037     TP3      O        OW      -0.834000       16.0000           0
     15041 TIP3     1037     TP3      H1       HW       0.417000       1.00800           0
     15042 TIP3     1037     TP3      H2       HW       0.417000       1.00800           0
     15043 TIP3     1038     TP3      O        OW      -0.834000       16.0000           0
     15044 TIP3     1038     TP3      H1       HW       0.417000       1.00800           0
     15045 TIP3     1038     TP3      H2       HW       0.417000       1.00800           0
     15046 TIP3     1039     TP3      O        OW      -0.834000       16.0000           0
     15047 TIP3     1039     TP3      H1       HW       0.417000       1.00800           0
     15048 TIP3     1039     TP3      H2       HW       0.417000       1.00800           0
     15049 TIP3     1040     TP3      O        OW      -0.834000       16.0000           0
     15050 TIP3     1040     TP3      H1       HW       0.417000       1.00800           0
     15051 TIP3     1040     TP3      H2       HW       0.417000       1.00800           0
     15052 TIP3     1041     TP3      O        OW      -0.834000       16.0000           0
     15053 TIP3     1041     TP3      H1       HW       0.417000       1.00800           0
     15054 TIP3     1041     TP3      H2       HW       0.417000       1.00800           0
     15055 TIP3     1042     TP3      O        OW      -0.834000       16.0000           0
     15056 TIP3     1042     TP3      H1       HW       0.417000       1.00800           0
     15057 TIP3     1042     TP3      H2       HW       0.417000       1.00800           0
     15058 TIP3     1043     TP3      O        OW      -0.834000       16.0000           0
     15059 TIP3     1043     TP3      H1       HW       0.417000       1.00800           0
     15060 TIP3     1043     TP3      H2       HW       0.417000       1.00800           0
     15061 TIP3     1044     TP3      O        OW      -0.834000       16.0000           0
     15062 TIP3     1044     TP3      H1       HW       0.417000       1.00800           0
     15063 TIP3     1044     TP3      H2       HW       0.417000       1.00800           0
     15064 TIP3     1045     TP3      O        OW      -0.834000       16.0000           0
     15065 TIP3     1045     TP3      H1       HW       0.417000       1.00800           0
     15066 TIP3     1045     TP3      H2       HW       0.417000       1.00800           0
     15067 TIP3     1046     TP3      O        OW      -0.834000       16.0000           0
     15068 TIP3     1046     TP3      H1       HW       0.417000       1.00800           0
     15069 TIP3     1046     TP3      H2       HW       0.417000       1.00800           0
     15070 TIP3     1047     TP3      O        OW      -0.834000       16.0000           0
     15071 TIP3     1047     TP3      H1       HW       0.417000       1.00800           0
     15072 TIP3     1047     TP3      H2       HW       0.417000       1.00800           0
     15073 TIP3     1048     TP3      O        OW      -0.834000       16.0000           0
     15074 TIP3     1048     TP3      H1       HW       0.417000       1.00800           0
     15075 TIP3     1048     TP3      H2       HW       0.417000       1.00800           0
     15076 TIP3     1049     TP3      O        OW      -0.834000       16.0000           0
     15077 TIP3     1049     TP3      H1       HW       0.417000       1.00800           0
     15078 TIP3     1049     TP3      H2       HW       0.417000       1.00800           0
     15079 TIP3     1050     TP3      O        OW      -0.834000       16.0000           0
     15080 TIP3     1050     TP3      H1       HW       0.417000       1.00800           0
     15081 TIP3     1050     TP3      H2       HW       0.417000       1.00800           0
     15082 TIP3     1051     TP3      O        OW      -0.834000       16.0000           0
     15083 TIP3     1051     TP3      H1       HW       0.417000       1.00800           0
     15084 TIP3     1051     TP3      H2       HW       0.417000       1.00800           0
     15085 TIP3     1052     TP3      O        OW      -0.834000       16.0000           0
     15086 TIP3     1052     TP3      H1       HW       0.417000       1.00800           0
     15087 TIP3     1052     TP3      H2       HW       0.417000       1.00800           0
     15088 TIP3     1053     TP3      O        OW      -0.834000       16.0000           0
     15089 TIP3     1053     TP3      H1       HW       0.417000       1.00800           0
     15090 TIP3     1053     TP3      H2       HW       0.417000       1.00800           0
     15091 TIP3     1054     TP3      O        OW      -0.834000       16.0000           0
     15092 TIP3     1054     TP3      H1       HW       0.417000       1.00800           0
     15093 TIP3     1054     TP3      H2       HW       0.417000       1.00800           0
     15094 TIP3     1055     TP3      O        OW      -0.834000       16.0000           0
     15095 TIP3     1055     TP3      H1       HW       0.417000       1.00800           0
     15096 TIP3     1055     TP3      H2       HW       0.417000       1.00800           0
     15097 TIP3     1056     TP3      O        OW      -0.834000       16.0000           0
     15098 TIP3     1056     TP3      H1       HW       0.417000       1.00800           0
     15099 TIP3     1056     TP3      H2       HW       0.417000       1.00800           0
     15100 TIP3     1057     TP3      O        OW      -0.834000       16.0000           0
     15101 TIP3     1057     TP3      H1       HW       0.417000       1.00800           0
     15102 TIP3     1057     TP3      H2       HW       0.417000       1.00800           0
     15103 TIP3     1058     TP3      O        OW      -0.834000       16.0000           0
     15104 TIP3     1058     TP3      H1       HW       0.417000       1.00800           0
     15105 TIP3     1058     TP3      H2       HW       0.417000       1.00800           0
     15106 TIP3     1059     TP3      O        OW      -0.834000       16.0000           0
     15107 TIP3     1059     TP3      H1       HW       0.417000       1.00800           0
     15108 TIP3     1059     TP3      H2       HW       0.417000       1.00800           0
     15109 TIP3     1060     TP3      O        OW      -0.834000       16.0000           0
     15110 TIP3     1060     TP3      H1       HW       0.417000       1.00800           0
     15111 TIP3     1060     TP3      H2       HW       0.417000       1.00800           0
     15112 TIP3     1061     TP3      O        OW      -0.834000       16.0000           0
     15113 TIP3     1061     TP3      H1       HW       0.417000       1.00800           0
     15114 TIP3     1061     TP3      H2       HW       0.417000       1.00800           0
     15115 TIP3     1062     TP3      O        OW      -0.834000       16.0000           0
     15116 TIP3     1062     TP3      H1       HW       0.417000       1.00800           0
     15117 TIP3     1062     TP3      H2       HW       0.417000       1.00800           0
     15118 TIP3     1063     TP3      O        OW      -0.834000       16.0000           0
     15119 TIP3     1063     TP3      H1       HW       0.417000       1.00800           0
     15120 TIP3     1063     TP3      H2       HW       0.417000       1.00800           0
     15121 TIP3     1064     TP3      O        OW      -0.834000       16.0000           0
     15122 TIP3     1064     TP3      H1       HW       0.417000       1.00800           0
     15123 TIP3     1064     TP3      H2       HW       0.417000       1.00800           0
     15124 TIP3     1065     TP3      O        OW      -0.834000       16.0000           0
     15125 TIP3     1065     TP3      H1       HW       0.417000       1.00800           0
     15126 TIP3     1065     TP3      H2       HW       0.417000       1.00800           0
     15127 TIP3     1066     TP3      O        OW      -0.834000       16.0000           0
     15128 TIP3     1066     TP3      H1       HW       0.417000       1.00800           0
     15129 TIP3     1066     TP3      H2       HW       0.417000       1.00800           0
     15130 TIP3     1067     TP3      O        OW      -0.834000       16.0000           0
     15131 TIP3     1067     TP3      H1       HW       0.417000       1.00800           0
     15132 TIP3     1067     TP3      H2       HW       0.417000       1.00800           0
     15133 TIP3     1068     TP3      O        OW      -0.834000       16.0000           0
     15134 TIP3     1068     TP3      H1       HW       0.417000       1.00800           0
     15135 TIP3     1068     TP3      H2       HW       0.417000       1.00800           0
     15136 TIP3     1069     TP3      O        OW      -0.834000       16.0000           0
     15137 TIP3     1069     TP3      H1       HW       0.417000       1.00800           0
     15138 TIP3     1069     TP3      H2       HW       0.417000       1.00800           0
     15139 TIP3     1070     TP3      O        OW      -0.834000       16.0000           0
     15140 TIP3     1070     TP3      H1       HW       0.417000       1.00800           0
     15141 TIP3     1070     TP3      H2       HW       0.417000       1.00800           0
     15142 TIP3     1071     TP3      O        OW      -0.834000       16.0000           0
     15143 TIP3     1071     TP3      H1       HW       0.417000       1.00800           0
     15144 TIP3     1071     TP3      H2       HW       0.417000       1.00800           0
     15145 TIP3     1072     TP3      O        OW      -0.834000       16.0000           0
     15146 TIP3     1072     TP3      H1       HW       0.417000       1.00800           0
     15147 TIP3     1072     TP3      H2       HW       0.417000       1.00800           0
     15148 TIP3     1073     TP3      O        OW      -0.834000       16.0000           0
     15149 TIP3     1073     TP3      H1       HW       0.417000       1.00800           0
     15150 TIP3     1073     TP3      H2       HW       0.417000       1.00800           0
     15151 TIP3     1074     TP3      O        OW      -0.834000       16.0000           0
     15152 TIP3     1074     TP3      H1       HW       0.417000       1.00800           0
     15153 TIP3     1074     TP3      H2       HW       0.417000       1.00800           0
     15154 TIP3     1075     TP3      O        OW      -0.834000       16.0000           0
     15155 TIP3     1075     TP3      H1       HW       0.417000       1.00800           0
     15156 TIP3     1075     TP3      H2       HW       0.417000       1.00800           0
     15157 TIP3     1076     TP3      O        OW      -0.834000       16.0000           0
     15158 TIP3     1076     TP3      H1       HW       0.417000       1.00800           0
     15159 TIP3     1076     TP3      H2       HW       0.417000       1.00800           0
     15160 TIP3     1077     TP3      O        OW      -0.834000       16.0000           0
     15161 TIP3     1077     TP3      H1       HW       0.417000       1.00800           0
     15162 TIP3     1077     TP3      H2       HW       0.417000       1.00800           0
     15163 TIP3     1078     TP3      O        OW      -0.834000       16.0000           0
     15164 TIP3     1078     TP3      H1       HW       0.417000       1.00800           0
     15165 TIP3     1078     TP3      H2       HW       0.417000       1.00800           0
     15166 TIP3     1079     TP3      O        OW      -0.834000       16.0000           0
     15167 TIP3     1079     TP3      H1       HW       0.417000       1.00800           0
     15168 TIP3     1079     TP3      H2       HW       0.417000       1.00800           0
     15169 TIP3     1080     TP3      O        OW      -0.834000       16.0000           0
     15170 TIP3     1080     TP3      H1       HW       0.417000       1.00800           0
     15171 TIP3     1080     TP3      H2       HW       0.417000       1.00800           0
     15172 TIP3     1081     TP3      O        OW      -0.834000       16.0000           0
     15173 TIP3     1081     TP3      H1       HW       0.417000       1.00800           0
     15174 TIP3     1081     TP3      H2       HW       0.417000       1.00800           0
     15175 TIP3     1082     TP3      O        OW      -0.834000       16.0000           0
     15176 TIP3     1082     TP3      H1       HW       0.417000       1.00800           0
     15177 TIP3     1082     TP3      H2       HW       0.417000       1.00800           0
     15178 TIP3     1083     TP3      O        OW      -0.834000       16.0000           0
     15179 TIP3     1083     TP3      H1       HW       0.417000       1.00800           0
     15180 TIP3     1083     TP3      H2       HW       0.417000       1.00800           0
     15181 TIP3     1084     TP3      O        OW      -0.834000       16.0000           0
     15182 TIP3     1084     TP3      H1       HW       0.417000       1.00800           0
     15183 TIP3     1084     TP3      H2       HW       0.417000       1.00800           0
     15184 TIP3     1085     TP3      O        OW      -0.834000       16.0000           0
     15185 TIP3     1085     TP3      H1       HW       0.417000       1.00800           0
     15186 TIP3     1085     TP3      H2       HW       0.417000       1.00800           0
     15187 TIP3     1086     TP3      O        OW      -0.834000       16.0000           0
     15188 TIP3     1086     TP3      H1       HW       0.417000       1.00800           0
     15189 TIP3     1086     TP3      H2       HW       0.417000       1.00800           0
     15190 TIP3     1087     TP3      O        OW      -0.834000       16.0000           0
     15191 TIP3     1087     TP3      H1       HW       0.417000       1.00800           0
     15192 TIP3     1087     TP3      H2       HW       0.417000       1.00800           0
     15193 TIP3     1088     TP3      O        OW      -0.834000       16.0000           0
     15194 TIP3     1088     TP3      H1       HW       0.417000       1.00800           0
     15195 TIP3     1088     TP3      H2       HW       0.417000       1.00800           0
     15196 TIP3     1089     TP3      O        OW      -0.834000       16.0000           0
     15197 TIP3     1089     TP3      H1       HW       0.417000       1.00800           0
     15198 TIP3     1089     TP3      H2       HW       0.417000       1.00800           0
     15199 TIP3     1090     TP3      O        OW      -0.834000       16.0000           0
     15200 TIP3     1090     TP3      H1       HW       0.417000       1.00800           0
     15201 TIP3     1090     TP3      H2       HW       0.417000       1.00800           0
     15202 TIP3     1091     TP3      O        OW      -0.834000       16.0000           0
     15203 TIP3     1091     TP3      H1       HW       0.417000       1.00800           0
     15204 TIP3     1091     TP3      H2       HW       0.417000       1.00800           0
     15205 TIP3     1092     TP3      O        OW      -0.834000       16.0000           0
     15206 TIP3     1092     TP3      H1       HW       0.417000       1.00800           0
     15207 TIP3     1092     TP3      H2       HW       0.417000       1.00800           0
     15208 TIP3     1093     TP3      O        OW      -0.834000       16.0000           0
     15209 TIP3     1093     TP3      H1       HW       0.417000       1.00800           0
     15210 TIP3     1093     TP3      H2       HW       0.417000       1.00800           0
     15211 TIP3     1094     TP3      O        OW      -0.834000       16.0000           0
     15212 TIP3     1094     TP3      H1       HW       0.417000       1.00800           0
     15213 TIP3     1094     TP3      H2       HW       0.417000       1.00800           0
     15214 TIP3     1095     TP3      O        OW      -0.834000       16.0000           0
     15215 TIP3     1095     TP3      H1       HW       0.417000       1.00800           0
     15216 TIP3     1095     TP3      H2       HW       0.417000       1.00800           0
     15217 TIP3     1096     TP3      O        OW      -0.834000       16.0000           0
     15218 TIP3     1096     TP3      H1       HW       0.417000       1.00800           0
     15219 TIP3     1096     TP3      H2       HW       0.417000       1.00800           0
     15220 TIP3     1097     TP3      O        OW      -0.834000       16.0000           0
     15221 TIP3     1097     TP3      H1       HW       0.417000       1.00800           0
     15222 TIP3     1097     TP3      H2       HW       0.417000       1.00800           0
     15223 TIP3     1098     TP3      O        OW      -0.834000       16.0000           0
     15224 TIP3     1098     TP3      H1       HW       0.417000       1.00800           0
     15225 TIP3     1098     TP3      H2       HW       0.417000       1.00800           0
     15226 TIP3     1099     TP3      O        OW      -0.834000       16.0000           0
     15227 TIP3     1099     TP3      H1       HW       0.417000       1.00800           0
     15228 TIP3     1099     TP3      H2       HW       0.417000       1.00800           0
     15229 TIP3     1100     TP3      O        OW      -0.834000       16.0000           0
     15230 TIP3     1100     TP3      H1       HW       0.417000       1.00800           0
     15231 TIP3     1100     TP3      H2       HW       0.417000       1.00800           0
     15232 TIP3     1101     TP3      O        OW      -0.834000       16.0000           0
     15233 TIP3     1101     TP3      H1       HW       0.417000       1.00800           0
     15234 TIP3     1101     TP3      H2       HW       0.417000       1.00800           0
     15235 TIP3     1102     TP3      O        OW      -0.834000       16.0000           0
     15236 TIP3     1102     TP3      H1       HW       0.417000       1.00800           0
     15237 TIP3     1102     TP3      H2       HW       0.417000       1.00800           0
     15238 TIP3     1103     TP3      O        OW      -0.834000       16.0000           0
     15239 TIP3     1103     TP3      H1       HW       0.417000       1.00800           0
     15240 TIP3     1103     TP3      H2       HW       0.417000       1.00800           0
     15241 TIP3     1104     TP3      O        OW      -0.834000       16.0000           0
     15242 TIP3     1104     TP3      H1       HW       0.417000       1.00800           0
     15243 TIP3     1104     TP3      H2       HW       0.417000       1.00800           0
     15244 TIP3     1105     TP3      O        OW      -0.834000       16.0000           0
     15245 TIP3     1105     TP3      H1       HW       0.417000       1.00800           0
     15246 TIP3     1105     TP3      H2       HW       0.417000       1.00800           0
     15247 TIP3     1106     TP3      O        OW      -0.834000       16.0000           0
     15248 TIP3     1106     TP3      H1       HW       0.417000       1.00800           0
     15249 TIP3     1106     TP3      H2       HW       0.417000       1.00800           0
     15250 TIP3     1107     TP3      O        OW      -0.834000       16.0000           0
     15251 TIP3     1107     TP3      H1       HW       0.417000       1.00800           0
     15252 TIP3     1107     TP3      H2       HW       0.417000       1.00800           0
     15253 TIP3     1108     TP3      O        OW      -0.834000       16.0000           0
     15254 TIP3     1108     TP3      H1       HW       0.417000       1.00800           0
     15255 TIP3     1108     TP3      H2       HW       0.417000       1.00800           0
     15256 TIP3     1109     TP3      O        OW      -0.834000       16.0000           0
     15257 TIP3     1109     TP3      H1       HW       0.417000       1.00800           0
     15258 TIP3     1109     TP3      H2       HW       0.417000       1.00800           0
     15259 TIP3     1110     TP3      O        OW      -0.834000       16.0000           0
     15260 TIP3     1110     TP3      H1       HW       0.417000       1.00800           0
     15261 TIP3     1110     TP3      H2       HW       0.417000       1.00800           0
     15262 TIP3     1111     TP3      O        OW      -0.834000       16.0000           0
     15263 TIP3     1111     TP3      H1       HW       0.417000       1.00800           0
     15264 TIP3     1111     TP3      H2       HW       0.417000       1.00800           0
     15265 TIP3     1112     TP3      O        OW      -0.834000       16.0000           0
     15266 TIP3     1112     TP3      H1       HW       0.417000       1.00800           0
     15267 TIP3     1112     TP3      H2       HW       0.417000       1.00800           0
     15268 TIP3     1113     TP3      O        OW      -0.834000       16.0000           0
     15269 TIP3     1113     TP3      H1       HW       0.417000       1.00800           0
     15270 TIP3     1113     TP3      H2       HW       0.417000       1.00800           0
     15271 TIP3     1114     TP3      O        OW      -0.834000       16.0000           0
     15272 TIP3     1114     TP3      H1       HW       0.417000       1.00800           0
     15273 TIP3     1114     TP3      H2       HW       0.417000       1.00800           0
     15274 TIP3     1115     TP3      O        OW      -0.834000       16.0000           0
     15275 TIP3     1115     TP3      H1       HW       0.417000       1.00800           0
     15276 TIP3     1115     TP3      H2       HW       0.417000       1.00800           0
     15277 TIP3     1116     TP3      O        OW      -0.834000       16.0000           0
     15278 TIP3     1116     TP3      H1       HW       0.417000       1.00800           0
     15279 TIP3     1116     TP3      H2       HW       0.417000       1.00800           0
     15280 TIP3     1117     TP3      O        OW      -0.834000       16.0000           0
     15281 TIP3     1117     TP3      H1       HW       0.417000       1.00800           0
     15282 TIP3     1117     TP3      H2       HW       0.417000       1.00800           0
     15283 TIP3     1118     TP3      O        OW      -0.834000       16.0000           0
     15284 TIP3     1118     TP3      H1       HW       0.417000       1.00800           0
     15285 TIP3     1118     TP3      H2       HW       0.417000       1.00800           0
     15286 TIP3     1119     TP3      O        OW      -0.834000       16.0000           0
     15287 TIP3     1119     TP3      H1       HW       0.417000       1.00800           0
     15288 TIP3     1119     TP3      H2       HW       0.417000       1.00800           0
     15289 TIP3     1120     TP3      O        OW      -0.834000       16.0000           0
     15290 TIP3     1120     TP3      H1       HW       0.417000       1.00800           0
     15291 TIP3     1120     TP3      H2       HW       0.417000       1.00800           0
     15292 TIP3     1121     TP3      O        OW      -0.834000       16.0000           0
     15293 TIP3     1121     TP3      H1       HW       0.417000       1.00800           0
     15294 TIP3     1121     TP3      H2       HW       0.417000       1.00800           0
     15295 TIP3     1122     TP3      O        OW      -0.834000       16.0000           0
     15296 TIP3     1122     TP3      H1       HW       0.417000       1.00800           0
     15297 TIP3     1122     TP3      H2       HW       0.417000       1.00800           0
     15298 TIP3     1123     TP3      O        OW      -0.834000       16.0000           0
     15299 TIP3     1123     TP3      H1       HW       0.417000       1.00800           0
     15300 TIP3     1123     TP3      H2       HW       0.417000       1.00800           0
     15301 TIP3     1124     TP3      O        OW      -0.834000       16.0000           0
     15302 TIP3     1124     TP3      H1       HW       0.417000       1.00800           0
     15303 TIP3     1124     TP3      H2       HW       0.417000       1.00800           0
     15304 TIP3     1125     TP3      O        OW      -0.834000       16.0000           0
     15305 TIP3     1125     TP3      H1       HW       0.417000       1.00800           0
     15306 TIP3     1125     TP3      H2       HW       0.417000       1.00800           0
     15307 TIP3     1126     TP3      O        OW      -0.834000       16.0000           0
     15308 TIP3     1126     TP3      H1       HW       0.417000       1.00800           0
     15309 TIP3     1126     TP3      H2       HW       0.417000       1.00800           0
     15310 TIP3     1127     TP3      O        OW      -0.834000       16.0000           0
     15311 TIP3     1127     TP3      H1       HW       0.417000       1.00800           0
     15312 TIP3     1127     TP3      H2       HW       0.417000       1.00800           0
     15313 TIP3     1128     TP3      O        OW      -0.834000       16.0000           0
     15314 TIP3     1128     TP3      H1       HW       0.417000       1.00800           0
     15315 TIP3     1128     TP3      H2       HW       0.417000       1.00800           0
     15316 TIP3     1129     TP3      O        OW      -0.834000       16.0000           0
     15317 TIP3     1129     TP3      H1       HW       0.417000       1.00800           0
     15318 TIP3     1129     TP3      H2       HW       0.417000       1.00800           0
     15319 TIP3     1130     TP3      O        OW      -0.834000       16.0000           0
     15320 TIP3     1130     TP3      H1       HW       0.417000       1.00800           0
     15321 TIP3     1130     TP3      H2       HW       0.417000       1.00800           0
     15322 TIP3     1131     TP3      O        OW      -0.834000       16.0000           0
     15323 TIP3     1131     TP3      H1       HW       0.417000       1.00800           0
     15324 TIP3     1131     TP3      H2       HW       0.417000       1.00800           0
     15325 TIP3     1132     TP3      O        OW      -0.834000       16.0000           0
     15326 TIP3     1132     TP3      H1       HW       0.417000       1.00800           0
     15327 TIP3     1132     TP3      H2       HW       0.417000       1.00800           0
     15328 TIP3     1133     TP3      O        OW      -0.834000       16.0000           0
     15329 TIP3     1133     TP3      H1       HW       0.417000       1.00800           0
     15330 TIP3     1133     TP3      H2       HW       0.417000       1.00800           0
     15331 TIP3     1134     TP3      O        OW      -0.834000       16.0000           0
     15332 TIP3     1134     TP3      H1       HW       0.417000       1.00800           0
     15333 TIP3     1134     TP3      H2       HW       0.417000       1.00800           0
     15334 TIP3     1135     TP3      O        OW      -0.834000       16.0000           0
     15335 TIP3     1135     TP3      H1       HW       0.417000       1.00800           0
     15336 TIP3     1135     TP3      H2       HW       0.417000       1.00800           0
     15337 TIP3     1136     TP3      O        OW      -0.834000       16.0000           0
     15338 TIP3     1136     TP3      H1       HW       0.417000       1.00800           0
     15339 TIP3     1136     TP3      H2       HW       0.417000       1.00800           0
     15340 TIP3     1137     TP3      O        OW      -0.834000       16.0000           0
     15341 TIP3     1137     TP3      H1       HW       0.417000       1.00800           0
     15342 TIP3     1137     TP3      H2       HW       0.417000       1.00800           0
     15343 TIP3     1138     TP3      O        OW      -0.834000       16.0000           0
     15344 TIP3     1138     TP3      H1       HW       0.417000       1.00800           0
     15345 TIP3     1138     TP3      H2       HW       0.417000       1.00800           0
     15346 TIP3     1139     TP3      O        OW      -0.834000       16.0000           0
     15347 TIP3     1139     TP3      H1       HW       0.417000       1.00800           0
     15348 TIP3     1139     TP3      H2       HW       0.417000       1.00800           0
     15349 TIP3     1140     TP3      O        OW      -0.834000       16.0000           0
     15350 TIP3     1140     TP3      H1       HW       0.417000       1.00800           0
     15351 TIP3     1140     TP3      H2       HW       0.417000       1.00800           0
     15352 TIP3     1141     TP3      O        OW      -0.834000       16.0000           0
     15353 TIP3     1141     TP3      H1       HW       0.417000       1.00800           0
     15354 TIP3     1141     TP3      H2       HW       0.417000       1.00800           0
     15355 TIP3     1142     TP3      O        OW      -0.834000       16.0000           0
     15356 TIP3     1142     TP3      H1       HW       0.417000       1.00800           0
     15357 TIP3     1142     TP3      H2       HW       0.417000       1.00800           0
     15358 TIP3     1143     TP3      O        OW      -0.834000       16.0000           0
     15359 TIP3     1143     TP3      H1       HW       0.417000       1.00800           0
     15360 TIP3     1143     TP3      H2       HW       0.417000       1.00800           0
     15361 TIP3     1144     TP3      O        OW      -0.834000       16.0000           0
     15362 TIP3     1144     TP3      H1       HW       0.417000       1.00800           0
     15363 TIP3     1144     TP3      H2       HW       0.417000       1.00800           0
     15364 TIP3     1145     TP3      O        OW      -0.834000       16.0000           0
     15365 TIP3     1145     TP3      H1       HW       0.417000       1.00800           0
     15366 TIP3     1145     TP3      H2       HW       0.417000       1.00800           0
     15367 TIP3     1146     TP3      O        OW      -0.834000       16.0000           0
     15368 TIP3     1146     TP3      H1       HW       0.417000       1.00800           0
     15369 TIP3     1146     TP3      H2       HW       0.417000       1.00800           0
     15370 TIP3     1147     TP3      O        OW      -0.834000       16.0000           0
     15371 TIP3     1147     TP3      H1       HW       0.417000       1.00800           0
     15372 TIP3     1147     TP3      H2       HW       0.417000       1.00800           0
     15373 TIP3     1148     TP3      O        OW      -0.834000       16.0000           0
     15374 TIP3     1148     TP3      H1       HW       0.417000       1.00800           0
     15375 TIP3     1148     TP3      H2       HW       0.417000       1.00800           0
     15376 TIP3     1149     TP3      O        OW      -0.834000       16.0000           0
     15377 TIP3     1149     TP3      H1       HW       0.417000       1.00800           0
     15378 TIP3     1149     TP3      H2       HW       0.417000       1.00800           0
     15379 TIP3     1150     TP3      O        OW      -0.834000       16.0000           0
     15380 TIP3     1150     TP3      H1       HW       0.417000       1.00800           0
     15381 TIP3     1150     TP3      H2       HW       0.417000       1.00800           0
     15382 TIP3     1151     TP3      O        OW      -0.834000       16.0000           0
     15383 TIP3     1151     TP3      H1       HW       0.417000       1.00800           0
     15384 TIP3     1151     TP3      H2       HW       0.417000       1.00800           0
     15385 TIP3     1152     TP3      O        OW      -0.834000       16.0000           0
     15386 TIP3     1152     TP3      H1       HW       0.417000       1.00800           0
     15387 TIP3     1152     TP3      H2       HW       0.417000       1.00800           0
     15388 TIP3     1153     TP3      O        OW      -0.834000       16.0000           0
     15389 TIP3     1153     TP3      H1       HW       0.417000       1.00800           0
     15390 TIP3     1153     TP3      H2       HW       0.417000       1.00800           0
     15391 TIP3     1154     TP3      O        OW      -0.834000       16.0000           0
     15392 TIP3     1154     TP3      H1       HW       0.417000       1.00800           0
     15393 TIP3     1154     TP3      H2       HW       0.417000       1.00800           0
     15394 TIP3     1155     TP3      O        OW      -0.834000       16.0000           0
     15395 TIP3     1155     TP3      H1       HW       0.417000       1.00800           0
     15396 TIP3     1155     TP3      H2       HW       0.417000       1.00800           0
     15397 TIP3     1156     TP3      O        OW      -0.834000       16.0000           0
     15398 TIP3     1156     TP3      H1       HW       0.417000       1.00800           0
     15399 TIP3     1156     TP3      H2       HW       0.417000       1.00800           0
     15400 TIP3     1157     TP3      O        OW      -0.834000       16.0000           0
     15401 TIP3     1157     TP3      H1       HW       0.417000       1.00800           0
     15402 TIP3     1157     TP3      H2       HW       0.417000       1.00800           0
     15403 TIP3     1158     TP3      O        OW      -0.834000       16.0000           0
     15404 TIP3     1158     TP3      H1       HW       0.417000       1.00800           0
     15405 TIP3     1158     TP3      H2       HW       0.417000       1.00800           0
     15406 TIP3     1159     TP3      O        OW      -0.834000       16.0000           0
     15407 TIP3     1159     TP3      H1       HW       0.417000       1.00800           0
     15408 TIP3     1159     TP3      H2       HW       0.417000       1.00800           0
     15409 TIP3     1160     TP3      O        OW      -0.834000       16.0000           0
     15410 TIP3     1160     TP3      H1       HW       0.417000       1.00800           0
     15411 TIP3     1160     TP3      H2       HW       0.417000       1.00800           0
     15412 TIP3     1161     TP3      O        OW      -0.834000       16.0000           0
     15413 TIP3     1161     TP3      H1       HW       0.417000       1.00800           0
     15414 TIP3     1161     TP3      H2       HW       0.417000       1.00800           0
     15415 TIP3     1162     TP3      O        OW      -0.834000       16.0000           0
     15416 TIP3     1162     TP3      H1       HW       0.417000       1.00800           0
     15417 TIP3     1162     TP3      H2       HW       0.417000       1.00800           0
     15418 TIP3     1163     TP3      O        OW      -0.834000       16.0000           0
     15419 TIP3     1163     TP3      H1       HW       0.417000       1.00800           0
     15420 TIP3     1163     TP3      H2       HW       0.417000       1.00800           0
     15421 TIP3     1164     TP3      O        OW      -0.834000       16.0000           0
     15422 TIP3     1164     TP3      H1       HW       0.417000       1.00800           0
     15423 TIP3     1164     TP3      H2       HW       0.417000       1.00800           0
     15424 TIP3     1165     TP3      O        OW      -0.834000       16.0000           0
     15425 TIP3     1165     TP3      H1       HW       0.417000       1.00800           0
     15426 TIP3     1165     TP3      H2       HW       0.417000       1.00800           0
     15427 TIP3     1166     TP3      O        OW      -0.834000       16.0000           0
     15428 TIP3     1166     TP3      H1       HW       0.417000       1.00800           0
     15429 TIP3     1166     TP3      H2       HW       0.417000       1.00800           0
     15430 TIP3     1167     TP3      O        OW      -0.834000       16.0000           0
     15431 TIP3     1167     TP3      H1       HW       0.417000       1.00800           0
     15432 TIP3     1167     TP3      H2       HW       0.417000       1.00800           0
     15433 TIP3     1168     TP3      O        OW      -0.834000       16.0000           0
     15434 TIP3     1168     TP3      H1       HW       0.417000       1.00800           0
     15435 TIP3     1168     TP3      H2       HW       0.417000       1.00800           0
     15436 TIP3     1169     TP3      O        OW      -0.834000       16.0000           0
     15437 TIP3     1169     TP3      H1       HW       0.417000       1.00800           0
     15438 TIP3     1169     TP3      H2       HW       0.417000       1.00800           0
     15439 TIP3     1170     TP3      O        OW      -0.834000       16.0000           0
     15440 TIP3     1170     TP3      H1       HW       0.417000       1.00800           0
     15441 TIP3     1170     TP3      H2       HW       0.417000       1.00800           0
     15442 TIP3     1171     TP3      O        OW      -0.834000       16.0000           0
     15443 TIP3     1171     TP3      H1       HW       0.417000       1.00800           0
     15444 TIP3     1171     TP3      H2       HW       0.417000       1.00800           0
     15445 TIP3     1172     TP3      O        OW      -0.834000       16.0000           0
     15446 TIP3     1172     TP3      H1       HW       0.417000       1.00800           0
     15447 TIP3     1172     TP3      H2       HW       0.417000       1.00800           0
     15448 TIP3     1173     TP3      O        OW      -0.834000       16.0000           0
     15449 TIP3     1173     TP3      H1       HW       0.417000       1.00800           0
     15450 TIP3     1173     TP3      H2       HW       0.417000       1.00800           0
     15451 TIP3     1174     TP3      O        OW      -0.834000       16.0000           0
     15452 TIP3     1174     TP3      H1       HW       0.417000       1.00800           0
     15453 TIP3     1174     TP3      H2       HW       0.417000       1.00800           0
     15454 TIP3     1175     TP3      O        OW      -0.834000       16.0000           0
     15455 TIP3     1175     TP3      H1       HW       0.417000       1.00800           0
     15456 TIP3     1175     TP3      H2       HW       0.417000       1.00800           0
     15457 TIP3     1176     TP3      O        OW      -0.834000       16.0000           0
     15458 TIP3     1176     TP3      H1       HW       0.417000       1.00800           0
     15459 TIP3     1176     TP3      H2       HW       0.417000       1.00800           0
     15460 TIP3     1177     TP3      O        OW      -0.834000       16.0000           0
     15461 TIP3     1177     TP3      H1       HW       0.417000       1.00800           0
     15462 TIP3     1177     TP3      H2       HW       0.417000       1.00800           0
     15463 TIP3     1178     TP3      O        OW      -0.834000       16.0000           0
     15464 TIP3     1178     TP3      H1       HW       0.417000       1.00800           0
     15465 TIP3     1178     TP3      H2       HW       0.417000       1.00800           0
     15466 TIP3     1179     TP3      O        OW      -0.834000       16.0000           0
     15467 TIP3     1179     TP3      H1       HW       0.417000       1.00800           0
     15468 TIP3     1179     TP3      H2       HW       0.417000       1.00800           0
     15469 TIP3     1180     TP3      O        OW      -0.834000       16.0000           0
     15470 TIP3     1180     TP3      H1       HW       0.417000       1.00800           0
     15471 TIP3     1180     TP3      H2       HW       0.417000       1.00800           0
     15472 TIP3     1181     TP3      O        OW      -0.834000       16.0000           0
     15473 TIP3     1181     TP3      H1       HW       0.417000       1.00800           0
     15474 TIP3     1181     TP3      H2       HW       0.417000       1.00800           0
     15475 TIP3     1182     TP3      O        OW      -0.834000       16.0000           0
     15476 TIP3     1182     TP3      H1       HW       0.417000       1.00800           0
     15477 TIP3     1182     TP3      H2       HW       0.417000       1.00800           0
     15478 TIP3     1183     TP3      O        OW      -0.834000       16.0000           0
     15479 TIP3     1183     TP3      H1       HW       0.417000       1.00800           0
     15480 TIP3     1183     TP3      H2       HW       0.417000       1.00800           0
     15481 TIP3     1184     TP3      O        OW      -0.834000       16.0000           0
     15482 TIP3     1184     TP3      H1       HW       0.417000       1.00800           0
     15483 TIP3     1184     TP3      H2       HW       0.417000       1.00800           0
     15484 TIP3     1185     TP3      O        OW      -0.834000       16.0000           0
     15485 TIP3     1185     TP3      H1       HW       0.417000       1.00800           0
     15486 TIP3     1185     TP3      H2       HW       0.417000       1.00800           0
     15487 TIP3     1186     TP3      O        OW      -0.834000       16.0000           0
     15488 TIP3     1186     TP3      H1       HW       0.417000       1.00800           0
     15489 TIP3     1186     TP3      H2       HW       0.417000       1.00800           0
     15490 TIP3     1187     TP3      O        OW      -0.834000       16.0000           0
     15491 TIP3     1187     TP3      H1       HW       0.417000       1.00800           0
     15492 TIP3     1187     TP3      H2       HW       0.417000       1.00800           0
     15493 TIP3     1188     TP3      O        OW      -0.834000       16.0000           0
     15494 TIP3     1188     TP3      H1       HW       0.417000       1.00800           0
     15495 TIP3     1188     TP3      H2       HW       0.417000       1.00800           0
     15496 TIP3     1189     TP3      O        OW      -0.834000       16.0000           0
     15497 TIP3     1189     TP3      H1       HW       0.417000       1.00800           0
     15498 TIP3     1189     TP3      H2       HW       0.417000       1.00800           0
     15499 TIP3     1190     TP3      O        OW      -0.834000       16.0000           0
     15500 TIP3     1190     TP3      H1       HW       0.417000       1.00800           0
     15501 TIP3     1190     TP3      H2       HW       0.417000       1.00800           0
     15502 TIP3     1191     TP3      O        OW      -0.834000       16.0000           0
     15503 TIP3     1191     TP3      H1       HW       0.417000       1.00800           0
     15504 TIP3     1191     TP3      H2       HW       0.417000       1.00800           0
     15505 TIP3     1192     TP3      O        OW      -0.834000       16.0000           0
     15506 TIP3     1192     TP3      H1       HW       0.417000       1.00800           0
     15507 TIP3     1192     TP3      H2       HW       0.417000       1.00800           0
     15508 TIP3     1193     TP3      O        OW      -0.834000       16.0000           0
     15509 TIP3     1193     TP3      H1       HW       0.417000       1.00800           0
     15510 TIP3     1193     TP3      H2       HW       0.417000       1.00800           0
     15511 TIP3     1194     TP3      O        OW      -0.834000       16.0000           0
     15512 TIP3     1194     TP3      H1       HW       0.417000       1.00800           0
     15513 TIP3     1194     TP3      H2       HW       0.417000       1.00800           0
     15514 TIP3     1195     TP3      O        OW      -0.834000       16.0000           0
     15515 TIP3     1195     TP3      H1       HW       0.417000       1.00800           0
     15516 TIP3     1195     TP3      H2       HW       0.417000       1.00800           0
     15517 TIP3     1196     TP3      O        OW      -0.834000       16.0000           0
     15518 TIP3     1196     TP3      H1       HW       0.417000       1.00800           0
     15519 TIP3     1196     TP3      H2       HW       0.417000       1.00800           0
     15520 TIP3     1197     TP3      O        OW      -0.834000       16.0000           0
     15521 TIP3     1197     TP3      H1       HW       0.417000       1.00800           0
     15522 TIP3     1197     TP3      H2       HW       0.417000       1.00800           0
     15523 TIP3     1198     TP3      O        OW      -0.834000       16.0000           0
     15524 TIP3     1198     TP3      H1       HW       0.417000       1.00800           0
     15525 TIP3     1198     TP3      H2       HW       0.417000       1.00800           0
     15526 TIP3     1199     TP3      O        OW      -0.834000       16.0000           0
     15527 TIP3     1199     TP3      H1       HW       0.417000       1.00800           0
     15528 TIP3     1199     TP3      H2       HW       0.417000       1.00800           0
     15529 TIP3     1200     TP3      O        OW      -0.834000       16.0000           0
     15530 TIP3     1200     TP3      H1       HW       0.417000       1.00800           0
     15531 TIP3     1200     TP3      H2       HW       0.417000       1.00800           0
     15532 TIP3     1201     TP3      O        OW      -0.834000       16.0000           0
     15533 TIP3     1201     TP3      H1       HW       0.417000       1.00800           0
     15534 TIP3     1201     TP3      H2       HW       0.417000       1.00800           0
     15535 TIP3     1202     TP3      O        OW      -0.834000       16.0000           0
     15536 TIP3     1202     TP3      H1       HW       0.417000       1.00800           0
     15537 TIP3     1202     TP3      H2       HW       0.417000       1.00800           0
     15538 TIP3     1203     TP3      O        OW      -0.834000       16.0000           0
     15539 TIP3     1203     TP3      H1       HW       0.417000       1.00800           0
     15540 TIP3     1203     TP3      H2       HW       0.417000       1.00800           0
     15541 TIP3     1204     TP3      O        OW      -0.834000       16.0000           0
     15542 TIP3     1204     TP3      H1       HW       0.417000       1.00800           0
     15543 TIP3     1204     TP3      H2       HW       0.417000       1.00800           0
     15544 TIP3     1205     TP3      O        OW      -0.834000       16.0000           0
     15545 TIP3     1205     TP3      H1       HW       0.417000       1.00800           0
     15546 TIP3     1205     TP3      H2       HW       0.417000       1.00800           0
     15547 TIP3     1206     TP3      O        OW      -0.834000       16.0000           0
     15548 TIP3     1206     TP3      H1       HW       0.417000       1.00800           0
     15549 TIP3     1206     TP3      H2       HW       0.417000       1.00800           0
     15550 TIP3     1207     TP3      O        OW      -0.834000       16.0000           0
     15551 TIP3     1207     TP3      H1       HW       0.417000       1.00800           0
     15552 TIP3     1207     TP3      H2       HW       0.417000       1.00800           0
     15553 TIP3     1208     TP3      O        OW      -0.834000       16.0000           0
     15554 TIP3     1208     TP3      H1       HW       0.417000       1.00800           0
     15555 TIP3     1208     TP3      H2       HW       0.417000       1.00800           0
     15556 TIP3     1209     TP3      O        OW      -0.834000       16.0000           0
     15557 TIP3     1209     TP3      H1       HW       0.417000       1.00800           0
     15558 TIP3     1209     TP3      H2       HW       0.417000       1.00800           0
     15559 TIP3     1210     TP3      O        OW      -0.834000       16.0000           0
     15560 TIP3     1210     TP3      H1       HW       0.417000       1.00800           0
     15561 TIP3     1210     TP3      H2       HW       0.417000       1.00800           0
     15562 TIP3     1211     TP3      O        OW      -0.834000       16.0000           0
     15563 TIP3     1211     TP3      H1       HW       0.417000       1.00800           0
     15564 TIP3     1211     TP3      H2       HW       0.417000       1.00800           0
     15565 TIP3     1212     TP3      O        OW      -0.834000       16.0000           0
     15566 TIP3     1212     TP3      H1       HW       0.417000       1.00800           0
     15567 TIP3     1212     TP3      H2       HW       0.417000       1.00800           0
     15568 TIP3     1213     TP3      O        OW      -0.834000       16.0000           0
     15569 TIP3     1213     TP3      H1       HW       0.417000       1.00800           0
     15570 TIP3     1213     TP3      H2       HW       0.417000       1.00800           0
     15571 TIP3     1214     TP3      O        OW      -0.834000       16.0000           0
     15572 TIP3     1214     TP3      H1       HW       0.417000       1.00800           0
     15573 TIP3     1214     TP3      H2       HW       0.417000       1.00800           0
     15574 TIP3     1215     TP3      O        OW      -0.834000       16.0000           0
     15575 TIP3     1215     TP3      H1       HW       0.417000       1.00800           0
     15576 TIP3     1215     TP3      H2       HW       0.417000       1.00800           0
     15577 TIP3     1216     TP3      O        OW      -0.834000       16.0000           0
     15578 TIP3     1216     TP3      H1       HW       0.417000       1.00800           0
     15579 TIP3     1216     TP3      H2       HW       0.417000       1.00800           0
     15580 TIP3     1217     TP3      O        OW      -0.834000       16.0000           0
     15581 TIP3     1217     TP3      H1       HW       0.417000       1.00800           0
     15582 TIP3     1217     TP3      H2       HW       0.417000       1.00800           0
     15583 TIP3     1218     TP3      O        OW      -0.834000       16.0000           0
     15584 TIP3     1218     TP3      H1       HW       0.417000       1.00800           0
     15585 TIP3     1218     TP3      H2       HW       0.417000       1.00800           0
     15586 TIP3     1219     TP3      O        OW      -0.834000       16.0000           0
     15587 TIP3     1219     TP3      H1       HW       0.417000       1.00800           0
     15588 TIP3     1219     TP3      H2       HW       0.417000       1.00800           0
     15589 TIP3     1220     TP3      O        OW      -0.834000       16.0000           0
     15590 TIP3     1220     TP3      H1       HW       0.417000       1.00800           0
     15591 TIP3     1220     TP3      H2       HW       0.417000       1.00800           0
     15592 TIP3     1221     TP3      O        OW      -0.834000       16.0000           0
     15593 TIP3     1221     TP3      H1       HW       0.417000       1.00800           0
     15594 TIP3     1221     TP3      H2       HW       0.417000       1.00800           0
     15595 TIP3     1222     TP3      O        OW      -0.834000       16.0000           0
     15596 TIP3     1222     TP3      H1       HW       0.417000       1.00800           0
     15597 TIP3     1222     TP3      H2       HW       0.417000       1.00800           0
     15598 TIP3     1223     TP3      O        OW      -0.834000       16.0000           0
     15599 TIP3     1223     TP3      H1       HW       0.417000       1.00800           0
     15600 TIP3     1223     TP3      H2       HW       0.417000       1.00800           0
     15601 TIP3     1224     TP3      O        OW      -0.834000       16.0000           0
     15602 TIP3     1224     TP3      H1       HW       0.417000       1.00800           0
     15603 TIP3     1224     TP3      H2       HW       0.417000       1.00800           0
     15604 TIP3     1225     TP3      O        OW      -0.834000       16.0000           0
     15605 TIP3     1225     TP3      H1       HW       0.417000       1.00800           0
     15606 TIP3     1225     TP3      H2       HW       0.417000       1.00800           0
     15607 TIP3     1226     TP3      O        OW      -0.834000       16.0000           0
     15608 TIP3     1226     TP3      H1       HW       0.417000       1.00800           0
     15609 TIP3     1226     TP3      H2       HW       0.417000       1.00800           0
     15610 TIP3     1227     TP3      O        OW      -0.834000       16.0000           0
     15611 TIP3     1227     TP3      H1       HW       0.417000       1.00800           0
     15612 TIP3     1227     TP3      H2       HW       0.417000       1.00800           0
     15613 TIP3     1228     TP3      O        OW      -0.834000       16.0000           0
     15614 TIP3     1228     TP3      H1       HW       0.417000       1.00800           0
     15615 TIP3     1228     TP3      H2       HW       0.417000       1.00800           0
     15616 TIP3     1229     TP3      O        OW      -0.834000       16.0000           0
     15617 TIP3     1229     TP3      H1       HW       0.417000       1.00800           0
     15618 TIP3     1229     TP3      H2       HW       0.417000       1.00800           0
     15619 TIP3     1230     TP3      O        OW      -0.834000       16.0000           0
     15620 TIP3     1230     TP3      H1       HW       0.417000       1.00800           0
     15621 TIP3     1230     TP3      H2       HW       0.417000       1.00800           0
     15622 TIP3     1231     TP3      O        OW      -0.834000       16.0000           0
     15623 TIP3     1231     TP3      H1       HW       0.417000       1.00800           0
     15624 TIP3     1231     TP3      H2       HW       0.417000       1.00800           0
     15625 TIP3     1232     TP3      O        OW      -0.834000       16.0000           0
     15626 TIP3     1232     TP3      H1       HW       0.417000       1.00800           0
     15627 TIP3     1232     TP3      H2       HW       0.417000       1.00800           0
     15628 TIP3     1233     TP3      O        OW      -0.834000       16.0000           0
     15629 TIP3     1233     TP3      H1       HW       0.417000       1.00800           0
     15630 TIP3     1233     TP3      H2       HW       0.417000       1.00800           0
     15631 TIP3     1234     TP3      O        OW      -0.834000       16.0000           0
     15632 TIP3     1234     TP3      H1       HW       0.417000       1.00800           0
     15633 TIP3     1234     TP3      H2       HW       0.417000       1.00800           0
     15634 TIP3     1235     TP3      O        OW      -0.834000       16.0000           0
     15635 TIP3     1235     TP3      H1       HW       0.417000       1.00800           0
     15636 TIP3     1235     TP3      H2       HW       0.417000       1.00800           0
     15637 TIP3     1236     TP3      O        OW      -0.834000       16.0000           0
     15638 TIP3     1236     TP3      H1       HW       0.417000       1.00800           0
     15639 TIP3     1236     TP3      H2       HW       0.417000       1.00800           0
     15640 TIP3     1237     TP3      O        OW      -0.834000       16.0000           0
     15641 TIP3     1237     TP3      H1       HW       0.417000       1.00800           0
     15642 TIP3     1237     TP3      H2       HW       0.417000       1.00800           0
     15643 TIP3     1238     TP3      O        OW      -0.834000       16.0000           0
     15644 TIP3     1238     TP3      H1       HW       0.417000       1.00800           0
     15645 TIP3     1238     TP3      H2       HW       0.417000       1.00800           0
     15646 TIP3     1239     TP3      O        OW      -0.834000       16.0000           0
     15647 TIP3     1239     TP3      H1       HW       0.417000       1.00800           0
     15648 TIP3     1239     TP3      H2       HW       0.417000       1.00800           0
     15649 TIP3     1240     TP3      O        OW      -0.834000       16.0000           0
     15650 TIP3     1240     TP3      H1       HW       0.417000       1.00800           0
     15651 TIP3     1240     TP3      H2       HW       0.417000       1.00800           0
     15652 TIP3     1241     TP3      O        OW      -0.834000       16.0000           0
     15653 TIP3     1241     TP3      H1       HW       0.417000       1.00800           0
     15654 TIP3     1241     TP3      H2       HW       0.417000       1.00800           0
     15655 TIP3     1242     TP3      O        OW      -0.834000       16.0000           0
     15656 TIP3     1242     TP3      H1       HW       0.417000       1.00800           0
     15657 TIP3     1242     TP3      H2       HW       0.417000       1.00800           0
     15658 TIP3     1243     TP3      O        OW      -0.834000       16.0000           0
     15659 TIP3     1243     TP3      H1       HW       0.417000       1.00800           0
     15660 TIP3     1243     TP3      H2       HW       0.417000       1.00800           0
     15661 TIP3     1244     TP3      O        OW      -0.834000       16.0000           0
     15662 TIP3     1244     TP3      H1       HW       0.417000       1.00800           0
     15663 TIP3     1244     TP3      H2       HW       0.417000       1.00800           0
     15664 TIP3     1245     TP3      O        OW      -0.834000       16.0000           0
     15665 TIP3     1245     TP3      H1       HW       0.417000       1.00800           0
     15666 TIP3     1245     TP3      H2       HW       0.417000       1.00800           0
     15667 TIP3     1246     TP3      O        OW      -0.834000       16.0000           0
     15668 TIP3     1246     TP3      H1       HW       0.417000       1.00800           0
     15669 TIP3     1246     TP3      H2       HW       0.417000       1.00800           0
     15670 TIP3     1247     TP3      O        OW      -0.834000       16.0000           0
     15671 TIP3     1247     TP3      H1       HW       0.417000       1.00800           0
     15672 TIP3     1247     TP3      H2       HW       0.417000       1.00800           0
     15673 TIP3     1248     TP3      O        OW      -0.834000       16.0000           0
     15674 TIP3     1248     TP3      H1       HW       0.417000       1.00800           0
     15675 TIP3     1248     TP3      H2       HW       0.417000       1.00800           0
     15676 TIP3     1249     TP3      O        OW      -0.834000       16.0000           0
     15677 TIP3     1249     TP3      H1       HW       0.417000       1.00800           0
     15678 TIP3     1249     TP3      H2       HW       0.417000       1.00800           0
     15679 TIP3     1250     TP3      O        OW      -0.834000       16.0000           0
     15680 TIP3     1250     TP3      H1       HW       0.417000       1.00800           0
     15681 TIP3     1250     TP3      H2       HW       0.417000       1.00800           0
     15682 TIP3     1251     TP3      O        OW      -0.834000       16.0000           0
     15683 TIP3     1251     TP3      H1       HW       0.417000       1.00800           0
     15684 TIP3     1251     TP3      H2       HW       0.417000       1.00800           0
     15685 TIP3     1252     TP3      O        OW      -0.834000       16.0000           0
     15686 TIP3     1252     TP3      H1       HW       0.417000       1.00800           0
     15687 TIP3     1252     TP3      H2       HW       0.417000       1.00800           0
     15688 TIP3     1253     TP3      O        OW      -0.834000       16.0000           0
     15689 TIP3     1253     TP3      H1       HW       0.417000       1.00800           0
     15690 TIP3     1253     TP3      H2       HW       0.417000       1.00800           0
     15691 TIP3     1254     TP3      O        OW      -0.834000       16.0000           0
     15692 TIP3     1254     TP3      H1       HW       0.417000       1.00800           0
     15693 TIP3     1254     TP3      H2       HW       0.417000       1.00800           0
     15694 TIP3     1255     TP3      O        OW      -0.834000       16.0000           0
     15695 TIP3     1255     TP3      H1       HW       0.417000       1.00800           0
     15696 TIP3     1255     TP3      H2       HW       0.417000       1.00800           0
     15697 TIP3     1256     TP3      O        OW      -0.834000       16.0000           0
     15698 TIP3     1256     TP3      H1       HW       0.417000       1.00800           0
     15699 TIP3     1256     TP3      H2       HW       0.417000       1.00800           0
     15700 TIP3     1257     TP3      O        OW      -0.834000       16.0000           0
     15701 TIP3     1257     TP3      H1       HW       0.417000       1.00800           0
     15702 TIP3     1257     TP3      H2       HW       0.417000       1.00800           0
     15703 TIP3     1258     TP3      O        OW      -0.834000       16.0000           0
     15704 TIP3     1258     TP3      H1       HW       0.417000       1.00800           0
     15705 TIP3     1258     TP3      H2       HW       0.417000       1.00800           0
     15706 TIP3     1259     TP3      O        OW      -0.834000       16.0000           0
     15707 TIP3     1259     TP3      H1       HW       0.417000       1.00800           0
     15708 TIP3     1259     TP3      H2       HW       0.417000       1.00800           0
     15709 TIP3     1260     TP3      O        OW      -0.834000       16.0000           0
     15710 TIP3     1260     TP3      H1       HW       0.417000       1.00800           0
     15711 TIP3     1260     TP3      H2       HW       0.417000       1.00800           0
     15712 TIP3     1261     TP3      O        OW      -0.834000       16.0000           0
     15713 TIP3     1261     TP3      H1       HW       0.417000       1.00800           0
     15714 TIP3     1261     TP3      H2       HW       0.417000       1.00800           0
     15715 TIP3     1262     TP3      O        OW      -0.834000       16.0000           0
     15716 TIP3     1262     TP3      H1       HW       0.417000       1.00800           0
     15717 TIP3     1262     TP3      H2       HW       0.417000       1.00800           0
     15718 TIP3     1263     TP3      O        OW      -0.834000       16.0000           0
     15719 TIP3     1263     TP3      H1       HW       0.417000       1.00800           0
     15720 TIP3     1263     TP3      H2       HW       0.417000       1.00800           0
     15721 TIP3     1264     TP3      O        OW      -0.834000       16.0000           0
     15722 TIP3     1264     TP3      H1       HW       0.417000       1.00800           0
     15723 TIP3     1264     TP3      H2       HW       0.417000       1.00800           0
     15724 TIP3     1265     TP3      O        OW      -0.834000       16.0000           0
     15725 TIP3     1265     TP3      H1       HW       0.417000       1.00800           0
     15726 TIP3     1265     TP3      H2       HW       0.417000       1.00800           0
     15727 TIP3     1266     TP3      O        OW      -0.834000       16.0000           0
     15728 TIP3     1266     TP3      H1       HW       0.417000       1.00800           0
     15729 TIP3     1266     TP3      H2       HW       0.417000       1.00800           0
     15730 TIP3     1267     TP3      O        OW      -0.834000       16.0000           0
     15731 TIP3     1267     TP3      H1       HW       0.417000       1.00800           0
     15732 TIP3     1267     TP3      H2       HW       0.417000       1.00800           0
     15733 TIP3     1268     TP3      O        OW      -0.834000       16.0000           0
     15734 TIP3     1268     TP3      H1       HW       0.417000       1.00800           0
     15735 TIP3     1268     TP3      H2       HW       0.417000       1.00800           0
     15736 TIP3     1269     TP3      O        OW      -0.834000       16.0000           0
     15737 TIP3     1269     TP3      H1       HW       0.417000       1.00800           0
     15738 TIP3     1269     TP3      H2       HW       0.417000       1.00800           0
     15739 TIP3     1270     TP3      O        OW      -0.834000       16.0000           0
     15740 TIP3     1270     TP3      H1       HW       0.417000       1.00800           0
     15741 TIP3     1270     TP3      H2       HW       0.417000       1.00800           0
     15742 TIP3     1271     TP3      O        OW      -0.834000       16.0000           0
     15743 TIP3     1271     TP3      H1       HW       0.417000       1.00800           0
     15744 TIP3     1271     TP3      H2       HW       0.417000       1.00800           0
     15745 TIP3     1272     TP3      O        OW      -0.834000       16.0000           0
     15746 TIP3     1272     TP3      H1       HW       0.417000       1.00800           0
     15747 TIP3     1272     TP3      H2       HW       0.417000       1.00800           0
     15748 TIP3     1273     TP3      O        OW      -0.834000       16.0000           0
     15749 TIP3     1273     TP3      H1       HW       0.417000       1.00800           0
     15750 TIP3     1273     TP3      H2       HW       0.417000       1.00800           0
     15751 TIP3     1274     TP3      O        OW      -0.834000       16.0000           0
     15752 TIP3     1274     TP3      H1       HW       0.417000       1.00800           0
     15753 TIP3     1274     TP3      H2       HW       0.417000       1.00800           0
     15754 TIP3     1275     TP3      O        OW      -0.834000       16.0000           0
     15755 TIP3     1275     TP3      H1       HW       0.417000       1.00800           0
     15756 TIP3     1275     TP3      H2       HW       0.417000       1.00800           0
     15757 TIP3     1276     TP3      O        OW      -0.834000       16.0000           0
     15758 TIP3     1276     TP3      H1       HW       0.417000       1.00800           0
     15759 TIP3     1276     TP3      H2       HW       0.417000       1.00800           0
     15760 TIP3     1277     TP3      O        OW      -0.834000       16.0000           0
     15761 TIP3     1277     TP3      H1       HW       0.417000       1.00800           0
     15762 TIP3     1277     TP3      H2       HW       0.417000       1.00800           0
     15763 TIP3     1278     TP3      O        OW      -0.834000       16.0000           0
     15764 TIP3     1278     TP3      H1       HW       0.417000       1.00800           0
     15765 TIP3     1278     TP3      H2       HW       0.417000       1.00800           0
     15766 TIP3     1279     TP3      O        OW      -0.834000       16.0000           0
     15767 TIP3     1279     TP3      H1       HW       0.417000       1.00800           0
     15768 TIP3     1279     TP3      H2       HW       0.417000       1.00800           0
     15769 TIP3     1280     TP3      O        OW      -0.834000       16.0000           0
     15770 TIP3     1280     TP3      H1       HW       0.417000       1.00800           0
     15771 TIP3     1280     TP3      H2       HW       0.417000       1.00800           0
     15772 TIP3     1281     TP3      O        OW      -0.834000       16.0000           0
     15773 TIP3     1281     TP3      H1       HW       0.417000       1.00800           0
     15774 TIP3     1281     TP3      H2       HW       0.417000       1.00800           0
     15775 TIP3     1282     TP3      O        OW      -0.834000       16.0000           0
     15776 TIP3     1282     TP3      H1       HW       0.417000       1.00800           0
     15777 TIP3     1282     TP3      H2       HW       0.417000       1.00800           0
     15778 TIP3     1283     TP3      O        OW      -0.834000       16.0000           0
     15779 TIP3     1283     TP3      H1       HW       0.417000       1.00800           0
     15780 TIP3     1283     TP3      H2       HW       0.417000       1.00800           0
     15781 TIP3     1284     TP3      O        OW      -0.834000       16.0000           0
     15782 TIP3     1284     TP3      H1       HW       0.417000       1.00800           0
     15783 TIP3     1284     TP3      H2       HW       0.417000       1.00800           0
     15784 TIP3     1285     TP3      O        OW      -0.834000       16.0000           0
     15785 TIP3     1285     TP3      H1       HW       0.417000       1.00800           0
     15786 TIP3     1285     TP3      H2       HW       0.417000       1.00800           0
     15787 TIP3     1286     TP3      O        OW      -0.834000       16.0000           0
     15788 TIP3     1286     TP3      H1       HW       0.417000       1.00800           0
     15789 TIP3     1286     TP3      H2       HW       0.417000       1.00800           0
     15790 TIP3     1287     TP3      O        OW      -0.834000       16.0000           0
     15791 TIP3     1287     TP3      H1       HW       0.417000       1.00800           0
     15792 TIP3     1287     TP3      H2       HW       0.417000       1.00800           0
     15793 TIP3     1288     TP3      O        OW      -0.834000       16.0000           0
     15794 TIP3     1288     TP3      H1       HW       0.417000       1.00800           0
     15795 TIP3     1288     TP3      H2       HW       0.417000       1.00800           0
     15796 TIP3     1289     TP3      O        OW      -0.834000       16.0000           0
     15797 TIP3     1289     TP3      H1       HW       0.417000       1.00800           0
     15798 TIP3     1289     TP3      H2       HW       0.417000       1.00800           0
     15799 TIP3     1290     TP3      O        OW      -0.834000       16.0000           0
     15800 TIP3     1290     TP3      H1       HW       0.417000       1.00800           0
     15801 TIP3     1290     TP3      H2       HW       0.417000       1.00800           0
     15802 TIP3     1291     TP3      O        OW      -0.834000       16.0000           0
     15803 TIP3     1291     TP3      H1       HW       0.417000       1.00800           0
     15804 TIP3     1291     TP3      H2       HW       0.417000       1.00800           0
     15805 TIP3     1292     TP3      O        OW      -0.834000       16.0000           0
     15806 TIP3     1292     TP3      H1       HW       0.417000       1.00800           0
     15807 TIP3     1292     TP3      H2       HW       0.417000       1.00800           0
     15808 TIP3     1293     TP3      O        OW      -0.834000       16.0000           0
     15809 TIP3     1293     TP3      H1       HW       0.417000       1.00800           0
     15810 TIP3     1293     TP3      H2       HW       0.417000       1.00800           0
     15811 TIP3     1294     TP3      O        OW      -0.834000       16.0000           0
     15812 TIP3     1294     TP3      H1       HW       0.417000       1.00800           0
     15813 TIP3     1294     TP3      H2       HW       0.417000       1.00800           0
     15814 TIP3     1295     TP3      O        OW      -0.834000       16.0000           0
     15815 TIP3     1295     TP3      H1       HW       0.417000       1.00800           0
     15816 TIP3     1295     TP3      H2       HW       0.417000       1.00800           0
     15817 TIP3     1296     TP3      O        OW      -0.834000       16.0000           0
     15818 TIP3     1296     TP3      H1       HW       0.417000       1.00800           0
     15819 TIP3     1296     TP3      H2       HW       0.417000       1.00800           0
     15820 TIP3     1297     TP3      O        OW      -0.834000       16.0000           0
     15821 TIP3     1297     TP3      H1       HW       0.417000       1.00800           0
     15822 TIP3     1297     TP3      H2       HW       0.417000       1.00800           0
     15823 TIP3     1298     TP3      O        OW      -0.834000       16.0000           0
     15824 TIP3     1298     TP3      H1       HW       0.417000       1.00800           0
     15825 TIP3     1298     TP3      H2       HW       0.417000       1.00800           0
     15826 TIP3     1299     TP3      O        OW      -0.834000       16.0000           0
     15827 TIP3     1299     TP3      H1       HW       0.417000       1.00800           0
     15828 TIP3     1299     TP3      H2       HW       0.417000       1.00800           0
     15829 TIP3     1300     TP3      O        OW      -0.834000       16.0000           0
     15830 TIP3     1300     TP3      H1       HW       0.417000       1.00800           0
     15831 TIP3     1300     TP3      H2       HW       0.417000       1.00800           0
     15832 TIP3     1301     TP3      O        OW      -0.834000       16.0000           0
     15833 TIP3     1301     TP3      H1       HW       0.417000       1.00800           0
     15834 TIP3     1301     TP3      H2       HW       0.417000       1.00800           0
     15835 TIP3     1302     TP3      O        OW      -0.834000       16.0000           0
     15836 TIP3     1302     TP3      H1       HW       0.417000       1.00800           0
     15837 TIP3     1302     TP3      H2       HW       0.417000       1.00800           0
     15838 TIP3     1303     TP3      O        OW      -0.834000       16.0000           0
     15839 TIP3     1303     TP3      H1       HW       0.417000       1.00800           0
     15840 TIP3     1303     TP3      H2       HW       0.417000       1.00800           0
     15841 TIP3     1304     TP3      O        OW      -0.834000       16.0000           0
     15842 TIP3     1304     TP3      H1       HW       0.417000       1.00800           0
     15843 TIP3     1304     TP3      H2       HW       0.417000       1.00800           0
     15844 TIP3     1305     TP3      O        OW      -0.834000       16.0000           0
     15845 TIP3     1305     TP3      H1       HW       0.417000       1.00800           0
     15846 TIP3     1305     TP3      H2       HW       0.417000       1.00800           0
     15847 TIP3     1306     TP3      O        OW      -0.834000       16.0000           0
     15848 TIP3     1306     TP3      H1       HW       0.417000       1.00800           0
     15849 TIP3     1306     TP3      H2       HW       0.417000       1.00800           0
     15850 TIP3     1307     TP3      O        OW      -0.834000       16.0000           0
     15851 TIP3     1307     TP3      H1       HW       0.417000       1.00800           0
     15852 TIP3     1307     TP3      H2       HW       0.417000       1.00800           0
     15853 TIP3     1308     TP3      O        OW      -0.834000       16.0000           0
     15854 TIP3     1308     TP3      H1       HW       0.417000       1.00800           0
     15855 TIP3     1308     TP3      H2       HW       0.417000       1.00800           0
     15856 TIP3     1309     TP3      O        OW      -0.834000       16.0000           0
     15857 TIP3     1309     TP3      H1       HW       0.417000       1.00800           0
     15858 TIP3     1309     TP3      H2       HW       0.417000       1.00800           0
     15859 TIP3     1310     TP3      O        OW      -0.834000       16.0000           0
     15860 TIP3     1310     TP3      H1       HW       0.417000       1.00800           0
     15861 TIP3     1310     TP3      H2       HW       0.417000       1.00800           0
     15862 TIP3     1311     TP3      O        OW      -0.834000       16.0000           0
     15863 TIP3     1311     TP3      H1       HW       0.417000       1.00800           0
     15864 TIP3     1311     TP3      H2       HW       0.417000       1.00800           0
     15865 TIP3     1312     TP3      O        OW      -0.834000       16.0000           0
     15866 TIP3     1312     TP3      H1       HW       0.417000       1.00800           0
     15867 TIP3     1312     TP3      H2       HW       0.417000       1.00800           0
     15868 TIP3     1313     TP3      O        OW      -0.834000       16.0000           0
     15869 TIP3     1313     TP3      H1       HW       0.417000       1.00800           0
     15870 TIP3     1313     TP3      H2       HW       0.417000       1.00800           0
     15871 TIP3     1314     TP3      O        OW      -0.834000       16.0000           0
     15872 TIP3     1314     TP3      H1       HW       0.417000       1.00800           0
     15873 TIP3     1314     TP3      H2       HW       0.417000       1.00800           0
     15874 TIP3     1315     TP3      O        OW      -0.834000       16.0000           0
     15875 TIP3     1315     TP3      H1       HW       0.417000       1.00800           0
     15876 TIP3     1315     TP3      H2       HW       0.417000       1.00800           0
     15877 TIP3     1316     TP3      O        OW      -0.834000       16.0000           0
     15878 TIP3     1316     TP3      H1       HW       0.417000       1.00800           0
     15879 TIP3     1316     TP3      H2       HW       0.417000       1.00800           0
     15880 TIP3     1317     TP3      O        OW      -0.834000       16.0000           0
     15881 TIP3     1317     TP3      H1       HW       0.417000       1.00800           0
     15882 TIP3     1317     TP3      H2       HW       0.417000       1.00800           0
     15883 TIP3     1318     TP3      O        OW      -0.834000       16.0000           0
     15884 TIP3     1318     TP3      H1       HW       0.417000       1.00800           0
     15885 TIP3     1318     TP3      H2       HW       0.417000       1.00800           0
     15886 TIP3     1319     TP3      O        OW      -0.834000       16.0000           0
     15887 TIP3     1319     TP3      H1       HW       0.417000       1.00800           0
     15888 TIP3     1319     TP3      H2       HW       0.417000       1.00800           0
     15889 TIP3     1320     TP3      O        OW      -0.834000       16.0000           0
     15890 TIP3     1320     TP3      H1       HW       0.417000       1.00800           0
     15891 TIP3     1320     TP3      H2       HW       0.417000       1.00800           0
     15892 TIP3     1321     TP3      O        OW      -0.834000       16.0000           0
     15893 TIP3     1321     TP3      H1       HW       0.417000       1.00800           0
     15894 TIP3     1321     TP3      H2       HW       0.417000       1.00800           0
     15895 TIP3     1322     TP3      O        OW      -0.834000       16.0000           0
     15896 TIP3     1322     TP3      H1       HW       0.417000       1.00800           0
     15897 TIP3     1322     TP3      H2       HW       0.417000       1.00800           0
     15898 TIP3     1323     TP3      O        OW      -0.834000       16.0000           0
     15899 TIP3     1323     TP3      H1       HW       0.417000       1.00800           0
     15900 TIP3     1323     TP3      H2       HW       0.417000       1.00800           0
     15901 TIP3     1324     TP3      O        OW      -0.834000       16.0000           0
     15902 TIP3     1324     TP3      H1       HW       0.417000       1.00800           0
     15903 TIP3     1324     TP3      H2       HW       0.417000       1.00800           0
     15904 TIP3     1325     TP3      O        OW      -0.834000       16.0000           0
     15905 TIP3     1325     TP3      H1       HW       0.417000       1.00800           0
     15906 TIP3     1325     TP3      H2       HW       0.417000       1.00800           0
     15907 TIP3     1326     TP3      O        OW      -0.834000       16.0000           0
     15908 TIP3     1326     TP3      H1       HW       0.417000       1.00800           0
     15909 TIP3     1326     TP3      H2       HW       0.417000       1.00800           0
     15910 TIP3     1327     TP3      O        OW      -0.834000       16.0000           0
     15911 TIP3     1327     TP3      H1       HW       0.417000       1.00800           0
     15912 TIP3     1327     TP3      H2       HW       0.417000       1.00800           0
     15913 TIP3     1328     TP3      O        OW      -0.834000       16.0000           0
     15914 TIP3     1328     TP3      H1       HW       0.417000       1.00800           0
     15915 TIP3     1328     TP3      H2       HW       0.417000       1.00800           0
     15916 TIP3     1329     TP3      O        OW      -0.834000       16.0000           0
     15917 TIP3     1329     TP3      H1       HW       0.417000       1.00800           0
     15918 TIP3     1329     TP3      H2       HW       0.417000       1.00800           0
     15919 TIP3     1330     TP3      O        OW      -0.834000       16.0000           0
     15920 TIP3     1330     TP3      H1       HW       0.417000       1.00800           0
     15921 TIP3     1330     TP3      H2       HW       0.417000       1.00800           0
     15922 TIP3     1331     TP3      O        OW      -0.834000       16.0000           0
     15923 TIP3     1331     TP3      H1       HW       0.417000       1.00800           0
     15924 TIP3     1331     TP3      H2       HW       0.417000       1.00800           0
     15925 TIP3     1332     TP3      O        OW      -0.834000       16.0000           0
     15926 TIP3     1332     TP3      H1       HW       0.417000       1.00800           0
     15927 TIP3     1332     TP3      H2       HW       0.417000       1.00800           0
     15928 TIP3     1333     TP3      O        OW      -0.834000       16.0000           0
     15929 TIP3     1333     TP3      H1       HW       0.417000       1.00800           0
     15930 TIP3     1333     TP3      H2       HW       0.417000       1.00800           0
     15931 TIP3     1334     TP3      O        OW      -0.834000       16.0000           0
     15932 TIP3     1334     TP3      H1       HW       0.417000       1.00800           0
     15933 TIP3     1334     TP3      H2       HW       0.417000       1.00800           0
     15934 TIP3     1335     TP3      O        OW      -0.834000       16.0000           0
     15935 TIP3     1335     TP3      H1       HW       0.417000       1.00800           0
     15936 TIP3     1335     TP3      H2       HW       0.417000       1.00800           0
     15937 TIP3     1336     TP3      O        OW      -0.834000       16.0000           0
     15938 TIP3     1336     TP3      H1       HW       0.417000       1.00800           0
     15939 TIP3     1336     TP3      H2       HW       0.417000       1.00800           0
     15940 TIP3     1337     TP3      O        OW      -0.834000       16.0000           0
     15941 TIP3     1337     TP3      H1       HW       0.417000       1.00800           0
     15942 TIP3     1337     TP3      H2       HW       0.417000       1.00800           0
     15943 TIP3     1338     TP3      O        OW      -0.834000       16.0000           0
     15944 TIP3     1338     TP3      H1       HW       0.417000       1.00800           0
     15945 TIP3     1338     TP3      H2       HW       0.417000       1.00800           0
     15946 TIP3     1339     TP3      O        OW      -0.834000       16.0000           0
     15947 TIP3     1339     TP3      H1       HW       0.417000       1.00800           0
     15948 TIP3     1339     TP3      H2       HW       0.417000       1.00800           0
     15949 TIP3     1340     TP3      O        OW      -0.834000       16.0000           0
     15950 TIP3     1340     TP3      H1       HW       0.417000       1.00800           0
     15951 TIP3     1340     TP3      H2       HW       0.417000       1.00800           0
     15952 TIP3     1341     TP3      O        OW      -0.834000       16.0000           0
     15953 TIP3     1341     TP3      H1       HW       0.417000       1.00800           0
     15954 TIP3     1341     TP3      H2       HW       0.417000       1.00800           0
     15955 TIP3     1342     TP3      O        OW      -0.834000       16.0000           0
     15956 TIP3     1342     TP3      H1       HW       0.417000       1.00800           0
     15957 TIP3     1342     TP3      H2       HW       0.417000       1.00800           0
     15958 TIP3     1343     TP3      O        OW      -0.834000       16.0000           0
     15959 TIP3     1343     TP3      H1       HW       0.417000       1.00800           0
     15960 TIP3     1343     TP3      H2       HW       0.417000       1.00800           0
     15961 TIP3     1344     TP3      O        OW      -0.834000       16.0000           0
     15962 TIP3     1344     TP3      H1       HW       0.417000       1.00800           0
     15963 TIP3     1344     TP3      H2       HW       0.417000       1.00800           0
     15964 TIP3     1345     TP3      O        OW      -0.834000       16.0000           0
     15965 TIP3     1345     TP3      H1       HW       0.417000       1.00800           0
     15966 TIP3     1345     TP3      H2       HW       0.417000       1.00800           0
     15967 TIP3     1346     TP3      O        OW      -0.834000       16.0000           0
     15968 TIP3     1346     TP3      H1       HW       0.417000       1.00800           0
     15969 TIP3     1346     TP3      H2       HW       0.417000       1.00800           0
     15970 TIP3     1347     TP3      O        OW      -0.834000       16.0000           0
     15971 TIP3     1347     TP3      H1       HW       0.417000       1.00800           0
     15972 TIP3     1347     TP3      H2       HW       0.417000       1.00800           0
     15973 TIP3     1348     TP3      O        OW      -0.834000       16.0000           0
     15974 TIP3     1348     TP3      H1       HW       0.417000       1.00800           0
     15975 TIP3     1348     TP3      H2       HW       0.417000       1.00800           0
     15976 TIP3     1349     TP3      O        OW      -0.834000       16.0000           0
     15977 TIP3     1349     TP3      H1       HW       0.417000       1.00800           0
     15978 TIP3     1349     TP3      H2       HW       0.417000       1.00800           0
     15979 TIP3     1350     TP3      O        OW      -0.834000       16.0000           0
     15980 TIP3     1350     TP3      H1       HW       0.417000       1.00800           0
     15981 TIP3     1350     TP3      H2       HW       0.417000       1.00800           0
     15982 TIP3     1351     TP3      O        OW      -0.834000       16.0000           0
     15983 TIP3     1351     TP3      H1       HW       0.417000       1.00800           0
     15984 TIP3     1351     TP3      H2       HW       0.417000       1.00800           0
     15985 TIP3     1352     TP3      O        OW      -0.834000       16.0000           0
     15986 TIP3     1352     TP3      H1       HW       0.417000       1.00800           0
     15987 TIP3     1352     TP3      H2       HW       0.417000       1.00800           0
     15988 TIP3     1353     TP3      O        OW      -0.834000       16.0000           0
     15989 TIP3     1353     TP3      H1       HW       0.417000       1.00800           0
     15990 TIP3     1353     TP3      H2       HW       0.417000       1.00800           0
     15991 TIP3     1354     TP3      O        OW      -0.834000       16.0000           0
     15992 TIP3     1354     TP3      H1       HW       0.417000       1.00800           0
     15993 TIP3     1354     TP3      H2       HW       0.417000       1.00800           0
     15994 TIP3     1355     TP3      O        OW      -0.834000       16.0000           0
     15995 TIP3     1355     TP3      H1       HW       0.417000       1.00800           0
     15996 TIP3     1355     TP3      H2       HW       0.417000       1.00800           0
     15997 TIP3     1356     TP3      O        OW      -0.834000       16.0000           0
     15998 TIP3     1356     TP3      H1       HW       0.417000       1.00800           0
     15999 TIP3     1356     TP3      H2       HW       0.417000       1.00800           0
     16000 TIP3     1357     TP3      O        OW      -0.834000       16.0000           0
     16001 TIP3     1357     TP3      H1       HW       0.417000       1.00800           0
     16002 TIP3     1357     TP3      H2       HW       0.417000       1.00800           0
     16003 TIP3     1358     TP3      O        OW      -0.834000       16.0000           0
     16004 TIP3     1358     TP3      H1       HW       0.417000       1.00800           0
     16005 TIP3     1358     TP3      H2       HW       0.417000       1.00800           0
     16006 TIP3     1359     TP3      O        OW      -0.834000       16.0000           0
     16007 TIP3     1359     TP3      H1       HW       0.417000       1.00800           0
     16008 TIP3     1359     TP3      H2       HW       0.417000       1.00800           0
     16009 TIP3     1360     TP3      O        OW      -0.834000       16.0000           0
     16010 TIP3     1360     TP3      H1       HW       0.417000       1.00800           0
     16011 TIP3     1360     TP3      H2       HW       0.417000       1.00800           0
     16012 TIP3     1361     TP3      O        OW      -0.834000       16.0000           0
     16013 TIP3     1361     TP3      H1       HW       0.417000       1.00800           0
     16014 TIP3     1361     TP3      H2       HW       0.417000       1.00800           0
     16015 TIP3     1362     TP3      O        OW      -0.834000       16.0000           0
     16016 TIP3     1362     TP3      H1       HW       0.417000       1.00800           0
     16017 TIP3     1362     TP3      H2       HW       0.417000       1.00800           0
     16018 TIP3     1363     TP3      O        OW      -0.834000       16.0000           0
     16019 TIP3     1363     TP3      H1       HW       0.417000       1.00800           0
     16020 TIP3     1363     TP3      H2       HW       0.417000       1.00800           0
     16021 TIP3     1364     TP3      O        OW      -0.834000       16.0000           0
     16022 TIP3     1364     TP3      H1       HW       0.417000       1.00800           0
     16023 TIP3     1364     TP3      H2       HW       0.417000       1.00800           0
     16024 TIP3     1365     TP3      O        OW      -0.834000       16.0000           0
     16025 TIP3     1365     TP3      H1       HW       0.417000       1.00800           0
     16026 TIP3     1365     TP3      H2       HW       0.417000       1.00800           0
     16027 TIP3     1366     TP3      O        OW      -0.834000       16.0000           0
     16028 TIP3     1366     TP3      H1       HW       0.417000       1.00800           0
     16029 TIP3     1366     TP3      H2       HW       0.417000       1.00800           0
     16030 TIP3     1367     TP3      O        OW      -0.834000       16.0000           0
     16031 TIP3     1367     TP3      H1       HW       0.417000       1.00800           0
     16032 TIP3     1367     TP3      H2       HW       0.417000       1.00800           0
     16033 TIP3     1368     TP3      O        OW      -0.834000       16.0000           0
     16034 TIP3     1368     TP3      H1       HW       0.417000       1.00800           0
     16035 TIP3     1368     TP3      H2       HW       0.417000       1.00800           0
     16036 TIP3     1369     TP3      O        OW      -0.834000       16.0000           0
     16037 TIP3     1369     TP3      H1       HW       0.417000       1.00800           0
     16038 TIP3     1369     TP3      H2       HW       0.417000       1.00800           0
     16039 TIP3     1370     TP3      O        OW      -0.834000       16.0000           0
     16040 TIP3     1370     TP3      H1       HW       0.417000       1.00800           0
     16041 TIP3     1370     TP3      H2       HW       0.417000       1.00800           0
     16042 TIP3     1371     TP3      O        OW      -0.834000       16.0000           0
     16043 TIP3     1371     TP3      H1       HW       0.417000       1.00800           0
     16044 TIP3     1371     TP3      H2       HW       0.417000       1.00800           0
     16045 TIP3     1372     TP3      O        OW      -0.834000       16.0000           0
     16046 TIP3     1372     TP3      H1       HW       0.417000       1.00800           0
     16047 TIP3     1372     TP3      H2       HW       0.417000       1.00800           0
     16048 TIP3     1373     TP3      O        OW      -0.834000       16.0000           0
     16049 TIP3     1373     TP3      H1       HW       0.417000       1.00800           0
     16050 TIP3     1373     TP3      H2       HW       0.417000       1.00800           0
     16051 TIP3     1374     TP3      O        OW      -0.834000       16.0000           0
     16052 TIP3     1374     TP3      H1       HW       0.417000       1.00800           0
     16053 TIP3     1374     TP3      H2       HW       0.417000       1.00800           0
     16054 TIP3     1375     TP3      O        OW      -0.834000       16.0000           0
     16055 TIP3     1375     TP3      H1       HW       0.417000       1.00800           0
     16056 TIP3     1375     TP3      H2       HW       0.417000       1.00800           0
     16057 TIP3     1376     TP3      O        OW      -0.834000       16.0000           0
     16058 TIP3     1376     TP3      H1       HW       0.417000       1.00800           0
     16059 TIP3     1376     TP3      H2       HW       0.417000       1.00800           0
     16060 TIP3     1377     TP3      O        OW      -0.834000       16.0000           0
     16061 TIP3     1377     TP3      H1       HW       0.417000       1.00800           0
     16062 TIP3     1377     TP3      H2       HW       0.417000       1.00800           0
     16063 TIP3     1378     TP3      O        OW      -0.834000       16.0000           0
     16064 TIP3     1378     TP3      H1       HW       0.417000       1.00800           0
     16065 TIP3     1378     TP3      H2       HW       0.417000       1.00800           0
     16066 TIP3     1379     TP3      O        OW      -0.834000       16.0000           0
     16067 TIP3     1379     TP3      H1       HW       0.417000       1.00800           0
     16068 TIP3     1379     TP3      H2       HW       0.417000       1.00800           0
     16069 TIP3     1380     TP3      O        OW      -0.834000       16.0000           0
     16070 TIP3     1380     TP3      H1       HW       0.417000       1.00800           0
     16071 TIP3     1380     TP3      H2       HW       0.417000       1.00800           0
     16072 TIP3     1381     TP3      O        OW      -0.834000       16.0000           0
     16073 TIP3     1381     TP3      H1       HW       0.417000       1.00800           0
     16074 TIP3     1381     TP3      H2       HW       0.417000       1.00800           0
     16075 TIP3     1382     TP3      O        OW      -0.834000       16.0000           0
     16076 TIP3     1382     TP3      H1       HW       0.417000       1.00800           0
     16077 TIP3     1382     TP3      H2       HW       0.417000       1.00800           0
     16078 TIP3     1383     TP3      O        OW      -0.834000       16.0000           0
     16079 TIP3     1383     TP3      H1       HW       0.417000       1.00800           0
     16080 TIP3     1383     TP3      H2       HW       0.417000       1.00800           0
     16081 TIP3     1384     TP3      O        OW      -0.834000       16.0000           0
     16082 TIP3     1384     TP3      H1       HW       0.417000       1.00800           0
     16083 TIP3     1384     TP3      H2       HW       0.417000       1.00800           0
     16084 TIP3     1385     TP3      O        OW      -0.834000       16.0000           0
     16085 TIP3     1385     TP3      H1       HW       0.417000       1.00800           0
     16086 TIP3     1385     TP3      H2       HW       0.417000       1.00800           0
     16087 TIP3     1386     TP3      O        OW      -0.834000       16.0000           0
     16088 TIP3     1386     TP3      H1       HW       0.417000       1.00800           0
     16089 TIP3     1386     TP3      H2       HW       0.417000       1.00800           0
     16090 TIP3     1387     TP3      O        OW      -0.834000       16.0000           0
     16091 TIP3     1387     TP3      H1       HW       0.417000       1.00800           0
     16092 TIP3     1387     TP3      H2       HW       0.417000       1.00800           0
     16093 TIP3     1388     TP3      O        OW      -0.834000       16.0000           0
     16094 TIP3     1388     TP3      H1       HW       0.417000       1.00800           0
     16095 TIP3     1388     TP3      H2       HW       0.417000       1.00800           0
     16096 TIP3     1389     TP3      O        OW      -0.834000       16.0000           0
     16097 TIP3     1389     TP3      H1       HW       0.417000       1.00800           0
     16098 TIP3     1389     TP3      H2       HW       0.417000       1.00800           0
     16099 TIP3     1390     TP3      O        OW      -0.834000       16.0000           0
     16100 TIP3     1390     TP3      H1       HW       0.417000       1.00800           0
     16101 TIP3     1390     TP3      H2       HW       0.417000       1.00800           0
     16102 TIP3     1391     TP3      O        OW      -0.834000       16.0000           0
     16103 TIP3     1391     TP3      H1       HW       0.417000       1.00800           0
     16104 TIP3     1391     TP3      H2       HW       0.417000       1.00800           0
     16105 TIP3     1392     TP3      O        OW      -0.834000       16.0000           0
     16106 TIP3     1392     TP3      H1       HW       0.417000       1.00800           0
     16107 TIP3     1392     TP3      H2       HW       0.417000       1.00800           0
     16108 TIP3     1393     TP3      O        OW      -0.834000       16.0000           0
     16109 TIP3     1393     TP3      H1       HW       0.417000       1.00800           0
     16110 TIP3     1393     TP3      H2       HW       0.417000       1.00800           0
     16111 TIP3     1394     TP3      O        OW      -0.834000       16.0000           0
     16112 TIP3     1394     TP3      H1       HW       0.417000       1.00800           0
     16113 TIP3     1394     TP3      H2       HW       0.417000       1.00800           0
     16114 TIP3     1395     TP3      O        OW      -0.834000       16.0000           0
     16115 TIP3     1395     TP3      H1       HW       0.417000       1.00800           0
     16116 TIP3     1395     TP3      H2       HW       0.417000       1.00800           0
     16117 TIP3     1396     TP3      O        OW      -0.834000       16.0000           0
     16118 TIP3     1396     TP3      H1       HW       0.417000       1.00800           0
     16119 TIP3     1396     TP3      H2       HW       0.417000       1.00800           0
     16120 TIP3     1397     TP3      O        OW      -0.834000       16.0000           0
     16121 TIP3     1397     TP3      H1       HW       0.417000       1.00800           0
     16122 TIP3     1397     TP3      H2       HW       0.417000       1.00800           0
     16123 TIP3     1398     TP3      O        OW      -0.834000       16.0000           0
     16124 TIP3     1398     TP3      H1       HW       0.417000       1.00800           0
     16125 TIP3     1398     TP3      H2       HW       0.417000       1.00800           0
     16126 TIP3     1399     TP3      O        OW      -0.834000       16.0000           0
     16127 TIP3     1399     TP3      H1       HW       0.417000       1.00800           0
     16128 TIP3     1399     TP3      H2       HW       0.417000       1.00800           0
     16129 TIP3     1400     TP3      O        OW      -0.834000       16.0000           0
     16130 TIP3     1400     TP3      H1       HW       0.417000       1.00800           0
     16131 TIP3     1400     TP3      H2       HW       0.417000       1.00800           0
     16132 TIP3     1401     TP3      O        OW      -0.834000       16.0000           0
     16133 TIP3     1401     TP3      H1       HW       0.417000       1.00800           0
     16134 TIP3     1401     TP3      H2       HW       0.417000       1.00800           0
     16135 TIP3     1402     TP3      O        OW      -0.834000       16.0000           0
     16136 TIP3     1402     TP3      H1       HW       0.417000       1.00800           0
     16137 TIP3     1402     TP3      H2       HW       0.417000       1.00800           0
     16138 TIP3     1403     TP3      O        OW      -0.834000       16.0000           0
     16139 TIP3     1403     TP3      H1       HW       0.417000       1.00800           0
     16140 TIP3     1403     TP3      H2       HW       0.417000       1.00800           0
     16141 TIP3     1404     TP3      O        OW      -0.834000       16.0000           0
     16142 TIP3     1404     TP3      H1       HW       0.417000       1.00800           0
     16143 TIP3     1404     TP3      H2       HW       0.417000       1.00800           0
     16144 TIP3     1405     TP3      O        OW      -0.834000       16.0000           0
     16145 TIP3     1405     TP3      H1       HW       0.417000       1.00800           0
     16146 TIP3     1405     TP3      H2       HW       0.417000       1.00800           0
     16147 TIP3     1406     TP3      O        OW      -0.834000       16.0000           0
     16148 TIP3     1406     TP3      H1       HW       0.417000       1.00800           0
     16149 TIP3     1406     TP3      H2       HW       0.417000       1.00800           0
     16150 TIP3     1407     TP3      O        OW      -0.834000       16.0000           0
     16151 TIP3     1407     TP3      H1       HW       0.417000       1.00800           0
     16152 TIP3     1407     TP3      H2       HW       0.417000       1.00800           0
     16153 TIP3     1408     TP3      O        OW      -0.834000       16.0000           0
     16154 TIP3     1408     TP3      H1       HW       0.417000       1.00800           0
     16155 TIP3     1408     TP3      H2       HW       0.417000       1.00800           0
     16156 TIP3     1409     TP3      O        OW      -0.834000       16.0000           0
     16157 TIP3     1409     TP3      H1       HW       0.417000       1.00800           0
     16158 TIP3     1409     TP3      H2       HW       0.417000       1.00800           0
     16159 TIP3     1410     TP3      O        OW      -0.834000       16.0000           0
     16160 TIP3     1410     TP3      H1       HW       0.417000       1.00800           0
     16161 TIP3     1410     TP3      H2       HW       0.417000       1.00800           0
     16162 TIP3     1411     TP3      O        OW      -0.834000       16.0000           0
     16163 TIP3     1411     TP3      H1       HW       0.417000       1.00800           0
     16164 TIP3     1411     TP3      H2       HW       0.417000       1.00800           0
     16165 TIP3     1412     TP3      O        OW      -0.834000       16.0000           0
     16166 TIP3     1412     TP3      H1       HW       0.417000       1.00800           0
     16167 TIP3     1412     TP3      H2       HW       0.417000       1.00800           0
     16168 TIP3     1413     TP3      O        OW      -0.834000       16.0000           0
     16169 TIP3     1413     TP3      H1       HW       0.417000       1.00800           0
     16170 TIP3     1413     TP3      H2       HW       0.417000       1.00800           0
     16171 TIP3     1414     TP3      O        OW      -0.834000       16.0000           0
     16172 TIP3     1414     TP3      H1       HW       0.417000       1.00800           0
     16173 TIP3     1414     TP3      H2       HW       0.417000       1.00800           0
     16174 TIP3     1415     TP3      O        OW      -0.834000       16.0000           0
     16175 TIP3     1415     TP3      H1       HW       0.417000       1.00800           0
     16176 TIP3     1415     TP3      H2       HW       0.417000       1.00800           0
     16177 TIP3     1416     TP3      O        OW      -0.834000       16.0000           0
     16178 TIP3     1416     TP3      H1       HW       0.417000       1.00800           0
     16179 TIP3     1416     TP3      H2       HW       0.417000       1.00800           0
     16180 TIP3     1417     TP3      O        OW      -0.834000       16.0000           0
     16181 TIP3     1417     TP3      H1       HW       0.417000       1.00800           0
     16182 TIP3     1417     TP3      H2       HW       0.417000       1.00800           0
     16183 TIP3     1418     TP3      O        OW      -0.834000       16.0000           0
     16184 TIP3     1418     TP3      H1       HW       0.417000       1.00800           0
     16185 TIP3     1418     TP3      H2       HW       0.417000       1.00800           0
     16186 TIP3     1419     TP3      O        OW      -0.834000       16.0000           0
     16187 TIP3     1419     TP3      H1       HW       0.417000       1.00800           0
     16188 TIP3     1419     TP3      H2       HW       0.417000       1.00800           0
     16189 TIP3     1420     TP3      O        OW      -0.834000       16.0000           0
     16190 TIP3     1420     TP3      H1       HW       0.417000       1.00800           0
     16191 TIP3     1420     TP3      H2       HW       0.417000       1.00800           0
     16192 TIP3     1421     TP3      O        OW      -0.834000       16.0000           0
     16193 TIP3     1421     TP3      H1       HW       0.417000       1.00800           0
     16194 TIP3     1421     TP3      H2       HW       0.417000       1.00800           0
     16195 TIP3     1422     TP3      O        OW      -0.834000       16.0000           0
     16196 TIP3     1422     TP3      H1       HW       0.417000       1.00800           0
     16197 TIP3     1422     TP3      H2       HW       0.417000       1.00800           0
     16198 TIP3     1423     TP3      O        OW      -0.834000       16.0000           0
     16199 TIP3     1423     TP3      H1       HW       0.417000       1.00800           0
     16200 TIP3     1423     TP3      H2       HW       0.417000       1.00800           0
     16201 TIP3     1424     TP3      O        OW      -0.834000       16.0000           0
     16202 TIP3     1424     TP3      H1       HW       0.417000       1.00800           0
     16203 TIP3     1424     TP3      H2       HW       0.417000       1.00800           0
     16204 TIP3     1425     TP3      O        OW      -0.834000       16.0000           0
     16205 TIP3     1425     TP3      H1       HW       0.417000       1.00800           0
     16206 TIP3     1425     TP3      H2       HW       0.417000       1.00800           0
     16207 TIP3     1426     TP3      O        OW      -0.834000       16.0000           0
     16208 TIP3     1426     TP3      H1       HW       0.417000       1.00800           0
     16209 TIP3     1426     TP3      H2       HW       0.417000       1.00800           0
     16210 TIP3     1427     TP3      O        OW      -0.834000       16.0000           0
     16211 TIP3     1427     TP3      H1       HW       0.417000       1.00800           0
     16212 TIP3     1427     TP3      H2       HW       0.417000       1.00800           0
     16213 TIP3     1428     TP3      O        OW      -0.834000       16.0000           0
     16214 TIP3     1428     TP3      H1       HW       0.417000       1.00800           0
     16215 TIP3     1428     TP3      H2       HW       0.417000       1.00800           0
     16216 TIP3     1429     TP3      O        OW      -0.834000       16.0000           0
     16217 TIP3     1429     TP3      H1       HW       0.417000       1.00800           0
     16218 TIP3     1429     TP3      H2       HW       0.417000       1.00800           0
     16219 TIP3     1430     TP3      O        OW      -0.834000       16.0000           0
     16220 TIP3     1430     TP3      H1       HW       0.417000       1.00800           0
     16221 TIP3     1430     TP3      H2       HW       0.417000       1.00800           0
     16222 TIP3     1431     TP3      O        OW      -0.834000       16.0000           0
     16223 TIP3     1431     TP3      H1       HW       0.417000       1.00800           0
     16224 TIP3     1431     TP3      H2       HW       0.417000       1.00800           0
     16225 TIP3     1432     TP3      O        OW      -0.834000       16.0000           0
     16226 TIP3     1432     TP3      H1       HW       0.417000       1.00800           0
     16227 TIP3     1432     TP3      H2       HW       0.417000       1.00800           0
     16228 TIP3     1433     TP3      O        OW      -0.834000       16.0000           0
     16229 TIP3     1433     TP3      H1       HW       0.417000       1.00800           0
     16230 TIP3     1433     TP3      H2       HW       0.417000       1.00800           0
     16231 TIP3     1434     TP3      O        OW      -0.834000       16.0000           0
     16232 TIP3     1434     TP3      H1       HW       0.417000       1.00800           0
     16233 TIP3     1434     TP3      H2       HW       0.417000       1.00800           0
     16234 TIP3     1435     TP3      O        OW      -0.834000       16.0000           0
     16235 TIP3     1435     TP3      H1       HW       0.417000       1.00800           0
     16236 TIP3     1435     TP3      H2       HW       0.417000       1.00800           0
     16237 TIP3     1436     TP3      O        OW      -0.834000       16.0000           0
     16238 TIP3     1436     TP3      H1       HW       0.417000       1.00800           0
     16239 TIP3     1436     TP3      H2       HW       0.417000       1.00800           0
     16240 TIP3     1437     TP3      O        OW      -0.834000       16.0000           0
     16241 TIP3     1437     TP3      H1       HW       0.417000       1.00800           0
     16242 TIP3     1437     TP3      H2       HW       0.417000       1.00800           0
     16243 TIP3     1438     TP3      O        OW      -0.834000       16.0000           0
     16244 TIP3     1438     TP3      H1       HW       0.417000       1.00800           0
     16245 TIP3     1438     TP3      H2       HW       0.417000       1.00800           0
     16246 TIP3     1439     TP3      O        OW      -0.834000       16.0000           0
     16247 TIP3     1439     TP3      H1       HW       0.417000       1.00800           0
     16248 TIP3     1439     TP3      H2       HW       0.417000       1.00800           0
     16249 TIP3     1440     TP3      O        OW      -0.834000       16.0000           0
     16250 TIP3     1440     TP3      H1       HW       0.417000       1.00800           0
     16251 TIP3     1440     TP3      H2       HW       0.417000       1.00800           0
     16252 TIP3     1441     TP3      O        OW      -0.834000       16.0000           0
     16253 TIP3     1441     TP3      H1       HW       0.417000       1.00800           0
     16254 TIP3     1441     TP3      H2       HW       0.417000       1.00800           0
     16255 TIP3     1442     TP3      O        OW      -0.834000       16.0000           0
     16256 TIP3     1442     TP3      H1       HW       0.417000       1.00800           0
     16257 TIP3     1442     TP3      H2       HW       0.417000       1.00800           0
     16258 TIP3     1443     TP3      O        OW      -0.834000       16.0000           0
     16259 TIP3     1443     TP3      H1       HW       0.417000       1.00800           0
     16260 TIP3     1443     TP3      H2       HW       0.417000       1.00800           0
     16261 TIP3     1444     TP3      O        OW      -0.834000       16.0000           0
     16262 TIP3     1444     TP3      H1       HW       0.417000       1.00800           0
     16263 TIP3     1444     TP3      H2       HW       0.417000       1.00800           0
     16264 TIP3     1445     TP3      O        OW      -0.834000       16.0000           0
     16265 TIP3     1445     TP3      H1       HW       0.417000       1.00800           0
     16266 TIP3     1445     TP3      H2       HW       0.417000       1.00800           0
     16267 TIP3     1446     TP3      O        OW      -0.834000       16.0000           0
     16268 TIP3     1446     TP3      H1       HW       0.417000       1.00800           0
     16269 TIP3     1446     TP3      H2       HW       0.417000       1.00800           0
     16270 TIP3     1447     TP3      O        OW      -0.834000       16.0000           0
     16271 TIP3     1447     TP3      H1       HW       0.417000       1.00800           0
     16272 TIP3     1447     TP3      H2       HW       0.417000       1.00800           0
     16273 TIP3     1448     TP3      O        OW      -0.834000       16.0000           0
     16274 TIP3     1448     TP3      H1       HW       0.417000       1.00800           0
     16275 TIP3     1448     TP3      H2       HW       0.417000       1.00800           0
     16276 TIP3     1449     TP3      O        OW      -0.834000       16.0000           0
     16277 TIP3     1449     TP3      H1       HW       0.417000       1.00800           0
     16278 TIP3     1449     TP3      H2       HW       0.417000       1.00800           0
     16279 TIP3     1450     TP3      O        OW      -0.834000       16.0000           0
     16280 TIP3     1450     TP3      H1       HW       0.417000       1.00800           0
     16281 TIP3     1450     TP3      H2       HW       0.417000       1.00800           0
     16282 TIP3     1451     TP3      O        OW      -0.834000       16.0000           0
     16283 TIP3     1451     TP3      H1       HW       0.417000       1.00800           0
     16284 TIP3     1451     TP3      H2       HW       0.417000       1.00800           0
     16285 TIP3     1452     TP3      O        OW      -0.834000       16.0000           0
     16286 TIP3     1452     TP3      H1       HW       0.417000       1.00800           0
     16287 TIP3     1452     TP3      H2       HW       0.417000       1.00800           0
     16288 TIP3     1453     TP3      O        OW      -0.834000       16.0000           0
     16289 TIP3     1453     TP3      H1       HW       0.417000       1.00800           0
     16290 TIP3     1453     TP3      H2       HW       0.417000       1.00800           0
     16291 TIP3     1454     TP3      O        OW      -0.834000       16.0000           0
     16292 TIP3     1454     TP3      H1       HW       0.417000       1.00800           0
     16293 TIP3     1454     TP3      H2       HW       0.417000       1.00800           0
     16294 TIP3     1455     TP3      O        OW      -0.834000       16.0000           0
     16295 TIP3     1455     TP3      H1       HW       0.417000       1.00800           0
     16296 TIP3     1455     TP3      H2       HW       0.417000       1.00800           0
     16297 TIP3     1456     TP3      O        OW      -0.834000       16.0000           0
     16298 TIP3     1456     TP3      H1       HW       0.417000       1.00800           0
     16299 TIP3     1456     TP3      H2       HW       0.417000       1.00800           0
     16300 TIP3     1457     TP3      O        OW      -0.834000       16.0000           0
     16301 TIP3     1457     TP3      H1       HW       0.417000       1.00800           0
     16302 TIP3     1457     TP3      H2       HW       0.417000       1.00800           0
     16303 TIP3     1458     TP3      O        OW      -0.834000       16.0000           0
     16304 TIP3     1458     TP3      H1       HW       0.417000       1.00800           0
     16305 TIP3     1458     TP3      H2       HW       0.417000       1.00800           0
     16306 TIP3     1459     TP3      O        OW      -0.834000       16.0000           0
     16307 TIP3     1459     TP3      H1       HW       0.417000       1.00800           0
     16308 TIP3     1459     TP3      H2       HW       0.417000       1.00800           0
     16309 TIP3     1460     TP3      O        OW      -0.834000       16.0000           0
     16310 TIP3     1460     TP3      H1       HW       0.417000       1.00800           0
     16311 TIP3     1460     TP3      H2       HW       0.417000       1.00800           0
     16312 TIP3     1461     TP3      O        OW      -0.834000       16.0000           0
     16313 TIP3     1461     TP3      H1       HW       0.417000       1.00800           0
     16314 TIP3     1461     TP3      H2       HW       0.417000       1.00800           0
     16315 TIP3     1462     TP3      O        OW      -0.834000       16.0000           0
     16316 TIP3     1462     TP3      H1       HW       0.417000       1.00800           0
     16317 TIP3     1462     TP3      H2       HW       0.417000       1.00800           0
     16318 TIP3     1463     TP3      O        OW      -0.834000       16.0000           0
     16319 TIP3     1463     TP3      H1       HW       0.417000       1.00800           0
     16320 TIP3     1463     TP3      H2       HW       0.417000       1.00800           0
     16321 TIP3     1464     TP3      O        OW      -0.834000       16.0000           0
     16322 TIP3     1464     TP3      H1       HW       0.417000       1.00800           0
     16323 TIP3     1464     TP3      H2       HW       0.417000       1.00800           0
     16324 TIP3     1465     TP3      O        OW      -0.834000       16.0000           0
     16325 TIP3     1465     TP3      H1       HW       0.417000       1.00800           0
     16326 TIP3     1465     TP3      H2       HW       0.417000       1.00800           0
     16327 TIP3     1466     TP3      O        OW      -0.834000       16.0000           0
     16328 TIP3     1466     TP3      H1       HW       0.417000       1.00800           0
     16329 TIP3     1466     TP3      H2       HW       0.417000       1.00800           0
     16330 TIP3     1467     TP3      O        OW      -0.834000       16.0000           0
     16331 TIP3     1467     TP3      H1       HW       0.417000       1.00800           0
     16332 TIP3     1467     TP3      H2       HW       0.417000       1.00800           0
     16333 TIP3     1468     TP3      O        OW      -0.834000       16.0000           0
     16334 TIP3     1468     TP3      H1       HW       0.417000       1.00800           0
     16335 TIP3     1468     TP3      H2       HW       0.417000       1.00800           0
     16336 TIP3     1469     TP3      O        OW      -0.834000       16.0000           0
     16337 TIP3     1469     TP3      H1       HW       0.417000       1.00800           0
     16338 TIP3     1469     TP3      H2       HW       0.417000       1.00800           0
     16339 TIP3     1470     TP3      O        OW      -0.834000       16.0000           0
     16340 TIP3     1470     TP3      H1       HW       0.417000       1.00800           0
     16341 TIP3     1470     TP3      H2       HW       0.417000       1.00800           0
     16342 TIP3     1471     TP3      O        OW      -0.834000       16.0000           0
     16343 TIP3     1471     TP3      H1       HW       0.417000       1.00800           0
     16344 TIP3     1471     TP3      H2       HW       0.417000       1.00800           0
     16345 TIP3     1472     TP3      O        OW      -0.834000       16.0000           0
     16346 TIP3     1472     TP3      H1       HW       0.417000       1.00800           0
     16347 TIP3     1472     TP3      H2       HW       0.417000       1.00800           0
     16348 TIP3     1473     TP3      O        OW      -0.834000       16.0000           0
     16349 TIP3     1473     TP3      H1       HW       0.417000       1.00800           0
     16350 TIP3     1473     TP3      H2       HW       0.417000       1.00800           0
     16351 TIP3     1474     TP3      O        OW      -0.834000       16.0000           0
     16352 TIP3     1474     TP3      H1       HW       0.417000       1.00800           0
     16353 TIP3     1474     TP3      H2       HW       0.417000       1.00800           0
     16354 TIP3     1475     TP3      O        OW      -0.834000       16.0000           0
     16355 TIP3     1475     TP3      H1       HW       0.417000       1.00800           0
     16356 TIP3     1475     TP3      H2       HW       0.417000       1.00800           0
     16357 TIP3     1476     TP3      O        OW      -0.834000       16.0000           0
     16358 TIP3     1476     TP3      H1       HW       0.417000       1.00800           0
     16359 TIP3     1476     TP3      H2       HW       0.417000       1.00800           0
     16360 TIP3     1477     TP3      O        OW      -0.834000       16.0000           0
     16361 TIP3     1477     TP3      H1       HW       0.417000       1.00800           0
     16362 TIP3     1477     TP3      H2       HW       0.417000       1.00800           0
     16363 TIP3     1478     TP3      O        OW      -0.834000       16.0000           0
     16364 TIP3     1478     TP3      H1       HW       0.417000       1.00800           0
     16365 TIP3     1478     TP3      H2       HW       0.417000       1.00800           0
     16366 TIP3     1479     TP3      O        OW      -0.834000       16.0000           0
     16367 TIP3     1479     TP3      H1       HW       0.417000       1.00800           0
     16368 TIP3     1479     TP3      H2       HW       0.417000       1.00800           0
     16369 TIP3     1480     TP3      O        OW      -0.834000       16.0000           0
     16370 TIP3     1480     TP3      H1       HW       0.417000       1.00800           0
     16371 TIP3     1480     TP3      H2       HW       0.417000       1.00800           0
     16372 TIP3     1481     TP3      O        OW      -0.834000       16.0000           0
     16373 TIP3     1481     TP3      H1       HW       0.417000       1.00800           0
     16374 TIP3     1481     TP3      H2       HW       0.417000       1.00800           0
     16375 TIP3     1482     TP3      O        OW      -0.834000       16.0000           0
     16376 TIP3     1482     TP3      H1       HW       0.417000       1.00800           0
     16377 TIP3     1482     TP3      H2       HW       0.417000       1.00800           0
     16378 TIP3     1483     TP3      O        OW      -0.834000       16.0000           0
     16379 TIP3     1483     TP3      H1       HW       0.417000       1.00800           0
     16380 TIP3     1483     TP3      H2       HW       0.417000       1.00800           0
     16381 TIP3     1484     TP3      O        OW      -0.834000       16.0000           0
     16382 TIP3     1484     TP3      H1       HW       0.417000       1.00800           0
     16383 TIP3     1484     TP3      H2       HW       0.417000       1.00800           0
     16384 TIP3     1485     TP3      O        OW      -0.834000       16.0000           0
     16385 TIP3     1485     TP3      H1       HW       0.417000       1.00800           0
     16386 TIP3     1485     TP3      H2       HW       0.417000       1.00800           0
     16387 TIP3     1486     TP3      O        OW      -0.834000       16.0000           0
     16388 TIP3     1486     TP3      H1       HW       0.417000       1.00800           0
     16389 TIP3     1486     TP3      H2       HW       0.417000       1.00800           0
     16390 TIP3     1487     TP3      O        OW      -0.834000       16.0000           0
     16391 TIP3     1487     TP3      H1       HW       0.417000       1.00800           0
     16392 TIP3     1487     TP3      H2       HW       0.417000       1.00800           0
     16393 TIP3     1488     TP3      O        OW      -0.834000       16.0000           0
     16394 TIP3     1488     TP3      H1       HW       0.417000       1.00800           0
     16395 TIP3     1488     TP3      H2       HW       0.417000       1.00800           0
     16396 TIP3     1489     TP3      O        OW      -0.834000       16.0000           0
     16397 TIP3     1489     TP3      H1       HW       0.417000       1.00800           0
     16398 TIP3     1489     TP3      H2       HW       0.417000       1.00800           0
     16399 TIP3     1490     TP3      O        OW      -0.834000       16.0000           0
     16400 TIP3     1490     TP3      H1       HW       0.417000       1.00800           0
     16401 TIP3     1490     TP3      H2       HW       0.417000       1.00800           0
     16402 TIP3     1491     TP3      O        OW      -0.834000       16.0000           0
     16403 TIP3     1491     TP3      H1       HW       0.417000       1.00800           0
     16404 TIP3     1491     TP3      H2       HW       0.417000       1.00800           0
     16405 TIP3     1492     TP3      O        OW      -0.834000       16.0000           0
     16406 TIP3     1492     TP3      H1       HW       0.417000       1.00800           0
     16407 TIP3     1492     TP3      H2       HW       0.417000       1.00800           0
     16408 TIP3     1493     TP3      O        OW      -0.834000       16.0000           0
     16409 TIP3     1493     TP3      H1       HW       0.417000       1.00800           0
     16410 TIP3     1493     TP3      H2       HW       0.417000       1.00800           0
     16411 TIP3     1494     TP3      O        OW      -0.834000       16.0000           0
     16412 TIP3     1494     TP3      H1       HW       0.417000       1.00800           0
     16413 TIP3     1494     TP3      H2       HW       0.417000       1.00800           0
     16414 TIP3     1495     TP3      O        OW      -0.834000       16.0000           0
     16415 TIP3     1495     TP3      H1       HW       0.417000       1.00800           0
     16416 TIP3     1495     TP3      H2       HW       0.417000       1.00800           0
     16417 TIP3     1496     TP3      O        OW      -0.834000       16.0000           0
     16418 TIP3     1496     TP3      H1       HW       0.417000       1.00800           0
     16419 TIP3     1496     TP3      H2       HW       0.417000       1.00800           0
     16420 TIP3     1497     TP3      O        OW      -0.834000       16.0000           0
     16421 TIP3     1497     TP3      H1       HW       0.417000       1.00800           0
     16422 TIP3     1497     TP3      H2       HW       0.417000       1.00800           0
     16423 TIP3     1498     TP3      O        OW      -0.834000       16.0000           0
     16424 TIP3     1498     TP3      H1       HW       0.417000       1.00800           0
     16425 TIP3     1498     TP3      H2       HW       0.417000       1.00800           0
     16426 TIP3     1499     TP3      O        OW      -0.834000       16.0000           0
     16427 TIP3     1499     TP3      H1       HW       0.417000       1.00800           0
     16428 TIP3     1499     TP3      H2       HW       0.417000       1.00800           0
     16429 TIP3     1500     TP3      O        OW      -0.834000       16.0000           0
     16430 TIP3     1500     TP3      H1       HW       0.417000       1.00800           0
     16431 TIP3     1500     TP3      H2       HW       0.417000       1.00800           0
     16432 TIP3     1501     TP3      O        OW      -0.834000       16.0000           0
     16433 TIP3     1501     TP3      H1       HW       0.417000       1.00800           0
     16434 TIP3     1501     TP3      H2       HW       0.417000       1.00800           0
     16435 TIP3     1502     TP3      O        OW      -0.834000       16.0000           0
     16436 TIP3     1502     TP3      H1       HW       0.417000       1.00800           0
     16437 TIP3     1502     TP3      H2       HW       0.417000       1.00800           0
     16438 TIP3     1503     TP3      O        OW      -0.834000       16.0000           0
     16439 TIP3     1503     TP3      H1       HW       0.417000       1.00800           0
     16440 TIP3     1503     TP3      H2       HW       0.417000       1.00800           0
     16441 TIP3     1504     TP3      O        OW      -0.834000       16.0000           0
     16442 TIP3     1504     TP3      H1       HW       0.417000       1.00800           0
     16443 TIP3     1504     TP3      H2       HW       0.417000       1.00800           0
     16444 TIP3     1505     TP3      O        OW      -0.834000       16.0000           0
     16445 TIP3     1505     TP3      H1       HW       0.417000       1.00800           0
     16446 TIP3     1505     TP3      H2       HW       0.417000       1.00800           0
     16447 TIP3     1506     TP3      O        OW      -0.834000       16.0000           0
     16448 TIP3     1506     TP3      H1       HW       0.417000       1.00800           0
     16449 TIP3     1506     TP3      H2       HW       0.417000       1.00800           0
     16450 TIP3     1507     TP3      O        OW      -0.834000       16.0000           0
     16451 TIP3     1507     TP3      H1       HW       0.417000       1.00800           0
     16452 TIP3     1507     TP3      H2       HW       0.417000       1.00800           0
     16453 TIP3     1508     TP3      O        OW      -0.834000       16.0000           0
     16454 TIP3     1508     TP3      H1       HW       0.417000       1.00800           0
     16455 TIP3     1508     TP3      H2       HW       0.417000       1.00800           0
     16456 TIP3     1509     TP3      O        OW      -0.834000       16.0000           0
     16457 TIP3     1509     TP3      H1       HW       0.417000       1.00800           0
     16458 TIP3     1509     TP3      H2       HW       0.417000       1.00800           0
     16459 TIP3     1510     TP3      O        OW      -0.834000       16.0000           0
     16460 TIP3     1510     TP3      H1       HW       0.417000       1.00800           0
     16461 TIP3     1510     TP3      H2       HW       0.417000       1.00800           0
     16462 TIP3     1511     TP3      O        OW      -0.834000       16.0000           0
     16463 TIP3     1511     TP3      H1       HW       0.417000       1.00800           0
     16464 TIP3     1511     TP3      H2       HW       0.417000       1.00800           0
     16465 TIP3     1512     TP3      O        OW      -0.834000       16.0000           0
     16466 TIP3     1512     TP3      H1       HW       0.417000       1.00800           0
     16467 TIP3     1512     TP3      H2       HW       0.417000       1.00800           0
     16468 TIP3     1513     TP3      O        OW      -0.834000       16.0000           0
     16469 TIP3     1513     TP3      H1       HW       0.417000       1.00800           0
     16470 TIP3     1513     TP3      H2       HW       0.417000       1.00800           0
     16471 TIP3     1514     TP3      O        OW      -0.834000       16.0000           0
     16472 TIP3     1514     TP3      H1       HW       0.417000       1.00800           0
     16473 TIP3     1514     TP3      H2       HW       0.417000       1.00800           0
     16474 TIP3     1515     TP3      O        OW      -0.834000       16.0000           0
     16475 TIP3     1515     TP3      H1       HW       0.417000       1.00800           0
     16476 TIP3     1515     TP3      H2       HW       0.417000       1.00800           0
     16477 TIP3     1516     TP3      O        OW      -0.834000       16.0000           0
     16478 TIP3     1516     TP3      H1       HW       0.417000       1.00800           0
     16479 TIP3     1516     TP3      H2       HW       0.417000       1.00800           0
     16480 TIP3     1517     TP3      O        OW      -0.834000       16.0000           0
     16481 TIP3     1517     TP3      H1       HW       0.417000       1.00800           0
     16482 TIP3     1517     TP3      H2       HW       0.417000       1.00800           0
     16483 TIP3     1518     TP3      O        OW      -0.834000       16.0000           0
     16484 TIP3     1518     TP3      H1       HW       0.417000       1.00800           0
     16485 TIP3     1518     TP3      H2       HW       0.417000       1.00800           0
     16486 TIP3     1519     TP3      O        OW      -0.834000       16.0000           0
     16487 TIP3     1519     TP3      H1       HW       0.417000       1.00800           0
     16488 TIP3     1519     TP3      H2       HW       0.417000       1.00800           0
     16489 TIP3     1520     TP3      O        OW      -0.834000       16.0000           0
     16490 TIP3     1520     TP3      H1       HW       0.417000       1.00800           0
     16491 TIP3     1520     TP3      H2       HW       0.417000       1.00800           0
     16492 TIP3     1521     TP3      O        OW      -0.834000       16.0000           0
     16493 TIP3     1521     TP3      H1       HW       0.417000       1.00800           0
     16494 TIP3     1521     TP3      H2       HW       0.417000       1.00800           0
     16495 TIP3     1522     TP3      O        OW      -0.834000       16.0000           0
     16496 TIP3     1522     TP3      H1       HW       0.417000       1.00800           0
     16497 TIP3     1522     TP3      H2       HW       0.417000       1.00800           0
     16498 TIP3     1523     TP3      O        OW      -0.834000       16.0000           0
     16499 TIP3     1523     TP3      H1       HW       0.417000       1.00800           0
     16500 TIP3     1523     TP3      H2       HW       0.417000       1.00800           0
     16501 TIP3     1524     TP3      O        OW      -0.834000       16.0000           0
     16502 TIP3     1524     TP3      H1       HW       0.417000       1.00800           0
     16503 TIP3     1524     TP3      H2       HW       0.417000       1.00800           0
     16504 TIP3     1525     TP3      O        OW      -0.834000       16.0000           0
     16505 TIP3     1525     TP3      H1       HW       0.417000       1.00800           0
     16506 TIP3     1525     TP3      H2       HW       0.417000       1.00800           0
     16507 TIP3     1526     TP3      O        OW      -0.834000       16.0000           0
     16508 TIP3     1526     TP3      H1       HW       0.417000       1.00800           0
     16509 TIP3     1526     TP3      H2       HW       0.417000       1.00800           0
     16510 TIP3     1527     TP3      O        OW      -0.834000       16.0000           0
     16511 TIP3     1527     TP3      H1       HW       0.417000       1.00800           0
     16512 TIP3     1527     TP3      H2       HW       0.417000       1.00800           0
     16513 TIP3     1528     TP3      O        OW      -0.834000       16.0000           0
     16514 TIP3     1528     TP3      H1       HW       0.417000       1.00800           0
     16515 TIP3     1528     TP3      H2       HW       0.417000       1.00800           0
     16516 TIP3     1529     TP3      O        OW      -0.834000       16.0000           0
     16517 TIP3     1529     TP3      H1       HW       0.417000       1.00800           0
     16518 TIP3     1529     TP3      H2       HW       0.417000       1.00800           0
     16519 TIP3     1530     TP3      O        OW      -0.834000       16.0000           0
     16520 TIP3     1530     TP3      H1       HW       0.417000       1.00800           0
     16521 TIP3     1530     TP3      H2       HW       0.417000       1.00800           0
     16522 TIP3     1531     TP3      O        OW      -0.834000       16.0000           0
     16523 TIP3     1531     TP3      H1       HW       0.417000       1.00800           0
     16524 TIP3     1531     TP3      H2       HW       0.417000       1.00800           0
     16525 TIP3     1532     TP3      O        OW      -0.834000       16.0000           0
     16526 TIP3     1532     TP3      H1       HW       0.417000       1.00800           0
     16527 TIP3     1532     TP3      H2       HW       0.417000       1.00800           0
     16528 TIP3     1533     TP3      O        OW      -0.834000       16.0000           0
     16529 TIP3     1533     TP3      H1       HW       0.417000       1.00800           0
     16530 TIP3     1533     TP3      H2       HW       0.417000       1.00800           0
     16531 TIP3     1534     TP3      O        OW      -0.834000       16.0000           0
     16532 TIP3     1534     TP3      H1       HW       0.417000       1.00800           0
     16533 TIP3     1534     TP3      H2       HW       0.417000       1.00800           0
     16534 TIP3     1535     TP3      O        OW      -0.834000       16.0000           0
     16535 TIP3     1535     TP3      H1       HW       0.417000       1.00800           0
     16536 TIP3     1535     TP3      H2       HW       0.417000       1.00800           0
     16537 TIP3     1536     TP3      O        OW      -0.834000       16.0000           0
     16538 TIP3     1536     TP3      H1       HW       0.417000       1.00800           0
     16539 TIP3     1536     TP3      H2       HW       0.417000       1.00800           0
     16540 TIP3     1537     TP3      O        OW      -0.834000       16.0000           0
     16541 TIP3     1537     TP3      H1       HW       0.417000       1.00800           0
     16542 TIP3     1537     TP3      H2       HW       0.417000       1.00800           0
     16543 TIP3     1538     TP3      O        OW      -0.834000       16.0000           0
     16544 TIP3     1538     TP3      H1       HW       0.417000       1.00800           0
     16545 TIP3     1538     TP3      H2       HW       0.417000       1.00800           0
     16546 TIP3     1539     TP3      O        OW      -0.834000       16.0000           0
     16547 TIP3     1539     TP3      H1       HW       0.417000       1.00800           0
     16548 TIP3     1539     TP3      H2       HW       0.417000       1.00800           0
     16549 TIP3     1540     TP3      O        OW      -0.834000       16.0000           0
     16550 TIP3     1540     TP3      H1       HW       0.417000       1.00800           0
     16551 TIP3     1540     TP3      H2       HW       0.417000       1.00800           0
     16552 TIP3     1541     TP3      O        OW      -0.834000       16.0000           0
     16553 TIP3     1541     TP3      H1       HW       0.417000       1.00800           0
     16554 TIP3     1541     TP3      H2       HW       0.417000       1.00800           0
     16555 TIP3     1542     TP3      O        OW      -0.834000       16.0000           0
     16556 TIP3     1542     TP3      H1       HW       0.417000       1.00800           0
     16557 TIP3     1542     TP3      H2       HW       0.417000       1.00800           0
     16558 TIP3     1543     TP3      O        OW      -0.834000       16.0000           0
     16559 TIP3     1543     TP3      H1       HW       0.417000       1.00800           0
     16560 TIP3     1543     TP3      H2       HW       0.417000       1.00800           0
     16561 TIP3     1544     TP3      O        OW      -0.834000       16.0000           0
     16562 TIP3     1544     TP3      H1       HW       0.417000       1.00800           0
     16563 TIP3     1544     TP3      H2       HW       0.417000       1.00800           0
     16564 TIP3     1545     TP3      O        OW      -0.834000       16.0000           0
     16565 TIP3     1545     TP3      H1       HW       0.417000       1.00800           0
     16566 TIP3     1545     TP3      H2       HW       0.417000       1.00800           0
     16567 TIP3     1546     TP3      O        OW      -0.834000       16.0000           0
     16568 TIP3     1546     TP3      H1       HW       0.417000       1.00800           0
     16569 TIP3     1546     TP3      H2       HW       0.417000       1.00800           0
     16570 TIP3     1547     TP3      O        OW      -0.834000       16.0000           0
     16571 TIP3     1547     TP3      H1       HW       0.417000       1.00800           0
     16572 TIP3     1547     TP3      H2       HW       0.417000       1.00800           0
     16573 TIP3     1548     TP3      O        OW      -0.834000       16.0000           0
     16574 TIP3     1548     TP3      H1       HW       0.417000       1.00800           0
     16575 TIP3     1548     TP3      H2       HW       0.417000       1.00800           0
     16576 TIP3     1549     TP3      O        OW      -0.834000       16.0000           0
     16577 TIP3     1549     TP3      H1       HW       0.417000       1.00800           0
     16578 TIP3     1549     TP3      H2       HW       0.417000       1.00800           0
     16579 TIP3     1550     TP3      O        OW      -0.834000       16.0000           0
     16580 TIP3     1550     TP3      H1       HW       0.417000       1.00800           0
     16581 TIP3     1550     TP3      H2       HW       0.417000       1.00800           0
     16582 TIP3     1551     TP3      O        OW      -0.834000       16.0000           0
     16583 TIP3     1551     TP3      H1       HW       0.417000       1.00800           0
     16584 TIP3     1551     TP3      H2       HW       0.417000       1.00800           0
     16585 TIP3     1552     TP3      O        OW      -0.834000       16.0000           0
     16586 TIP3     1552     TP3      H1       HW       0.417000       1.00800           0
     16587 TIP3     1552     TP3      H2       HW       0.417000       1.00800           0
     16588 TIP3     1553     TP3      O        OW      -0.834000       16.0000           0
     16589 TIP3     1553     TP3      H1       HW       0.417000       1.00800           0
     16590 TIP3     1553     TP3      H2       HW       0.417000       1.00800           0
     16591 TIP3     1554     TP3      O        OW      -0.834000       16.0000           0
     16592 TIP3     1554     TP3      H1       HW       0.417000       1.00800           0
     16593 TIP3     1554     TP3      H2       HW       0.417000       1.00800           0
     16594 TIP3     1555     TP3      O        OW      -0.834000       16.0000           0
     16595 TIP3     1555     TP3      H1       HW       0.417000       1.00800           0
     16596 TIP3     1555     TP3      H2       HW       0.417000       1.00800           0
     16597 TIP3     1556     TP3      O        OW      -0.834000       16.0000           0
     16598 TIP3     1556     TP3      H1       HW       0.417000       1.00800           0
     16599 TIP3     1556     TP3      H2       HW       0.417000       1.00800           0
     16600 TIP3     1557     TP3      O        OW      -0.834000       16.0000           0
     16601 TIP3     1557     TP3      H1       HW       0.417000       1.00800           0
     16602 TIP3     1557     TP3      H2       HW       0.417000       1.00800           0
     16603 TIP3     1558     TP3      O        OW      -0.834000       16.0000           0
     16604 TIP3     1558     TP3      H1       HW       0.417000       1.00800           0
     16605 TIP3     1558     TP3      H2       HW       0.417000       1.00800           0
     16606 TIP3     1559     TP3      O        OW      -0.834000       16.0000           0
     16607 TIP3     1559     TP3      H1       HW       0.417000       1.00800           0
     16608 TIP3     1559     TP3      H2       HW       0.417000       1.00800           0
     16609 TIP3     1560     TP3      O        OW      -0.834000       16.0000           0
     16610 TIP3     1560     TP3      H1       HW       0.417000       1.00800           0
     16611 TIP3     1560     TP3      H2       HW       0.417000       1.00800           0
     16612 TIP3     1561     TP3      O        OW      -0.834000       16.0000           0
     16613 TIP3     1561     TP3      H1       HW       0.417000       1.00800           0
     16614 TIP3     1561     TP3      H2       HW       0.417000       1.00800           0
     16615 TIP3     1562     TP3      O        OW      -0.834000       16.0000           0
     16616 TIP3     1562     TP3      H1       HW       0.417000       1.00800           0
     16617 TIP3     1562     TP3      H2       HW       0.417000       1.00800           0
     16618 TIP3     1563     TP3      O        OW      -0.834000       16.0000           0
     16619 TIP3     1563     TP3      H1       HW       0.417000       1.00800           0
     16620 TIP3     1563     TP3      H2       HW       0.417000       1.00800           0
     16621 TIP3     1564     TP3      O        OW      -0.834000       16.0000           0
     16622 TIP3     1564     TP3      H1       HW       0.417000       1.00800           0
     16623 TIP3     1564     TP3      H2       HW       0.417000       1.00800           0
     16624 TIP3     1565     TP3      O        OW      -0.834000       16.0000           0
     16625 TIP3     1565     TP3      H1       HW       0.417000       1.00800           0
     16626 TIP3     1565     TP3      H2       HW       0.417000       1.00800           0
     16627 TIP3     1566     TP3      O        OW      -0.834000       16.0000           0
     16628 TIP3     1566     TP3      H1       HW       0.417000       1.00800           0
     16629 TIP3     1566     TP3      H2       HW       0.417000       1.00800           0
     16630 TIP3     1567     TP3      O        OW      -0.834000       16.0000           0
     16631 TIP3     1567     TP3      H1       HW       0.417000       1.00800           0
     16632 TIP3     1567     TP3      H2       HW       0.417000       1.00800           0
     16633 TIP3     1568     TP3      O        OW      -0.834000       16.0000           0
     16634 TIP3     1568     TP3      H1       HW       0.417000       1.00800           0
     16635 TIP3     1568     TP3      H2       HW       0.417000       1.00800           0
     16636 TIP3     1569     TP3      O        OW      -0.834000       16.0000           0
     16637 TIP3     1569     TP3      H1       HW       0.417000       1.00800           0
     16638 TIP3     1569     TP3      H2       HW       0.417000       1.00800           0
     16639 TIP3     1570     TP3      O        OW      -0.834000       16.0000           0
     16640 TIP3     1570     TP3      H1       HW       0.417000       1.00800           0
     16641 TIP3     1570     TP3      H2       HW       0.417000       1.00800           0
     16642 TIP3     1571     TP3      O        OW      -0.834000       16.0000           0
     16643 TIP3     1571     TP3      H1       HW       0.417000       1.00800           0
     16644 TIP3     1571     TP3      H2       HW       0.417000       1.00800           0
     16645 TIP3     1572     TP3      O        OW      -0.834000       16.0000           0
     16646 TIP3     1572     TP3      H1       HW       0.417000       1.00800           0
     16647 TIP3     1572     TP3      H2       HW       0.417000       1.00800           0
     16648 TIP3     1573     TP3      O        OW      -0.834000       16.0000           0
     16649 TIP3     1573     TP3      H1       HW       0.417000       1.00800           0
     16650 TIP3     1573     TP3      H2       HW       0.417000       1.00800           0
     16651 TIP3     1574     TP3      O        OW      -0.834000       16.0000           0
     16652 TIP3     1574     TP3      H1       HW       0.417000       1.00800           0
     16653 TIP3     1574     TP3      H2       HW       0.417000       1.00800           0
     16654 TIP3     1575     TP3      O        OW      -0.834000       16.0000           0
     16655 TIP3     1575     TP3      H1       HW       0.417000       1.00800           0
     16656 TIP3     1575     TP3      H2       HW       0.417000       1.00800           0
     16657 TIP3     1576     TP3      O        OW      -0.834000       16.0000           0
     16658 TIP3     1576     TP3      H1       HW       0.417000       1.00800           0
     16659 TIP3     1576     TP3      H2       HW       0.417000       1.00800           0
     16660 TIP3     1577     TP3      O        OW      -0.834000       16.0000           0
     16661 TIP3     1577     TP3      H1       HW       0.417000       1.00800           0
     16662 TIP3     1577     TP3      H2       HW       0.417000       1.00800           0
     16663 TIP3     1578     TP3      O        OW      -0.834000       16.0000           0
     16664 TIP3     1578     TP3      H1       HW       0.417000       1.00800           0
     16665 TIP3     1578     TP3      H2       HW       0.417000       1.00800           0
     16666 TIP3     1579     TP3      O        OW      -0.834000       16.0000           0
     16667 TIP3     1579     TP3      H1       HW       0.417000       1.00800           0
     16668 TIP3     1579     TP3      H2       HW       0.417000       1.00800           0
     16669 TIP3     1580     TP3      O        OW      -0.834000       16.0000           0
     16670 TIP3     1580     TP3      H1       HW       0.417000       1.00800           0
     16671 TIP3     1580     TP3      H2       HW       0.417000       1.00800           0
     16672 TIP3     1581     TP3      O        OW      -0.834000       16.0000           0
     16673 TIP3     1581     TP3      H1       HW       0.417000       1.00800           0
     16674 TIP3     1581     TP3      H2       HW       0.417000       1.00800           0
     16675 TIP3     1582     TP3      O        OW      -0.834000       16.0000           0
     16676 TIP3     1582     TP3      H1       HW       0.417000       1.00800           0
     16677 TIP3     1582     TP3      H2       HW       0.417000       1.00800           0
     16678 TIP3     1583     TP3      O        OW      -0.834000       16.0000           0
     16679 TIP3     1583     TP3      H1       HW       0.417000       1.00800           0
     16680 TIP3     1583     TP3      H2       HW       0.417000       1.00800           0
     16681 TIP3     1584     TP3      O        OW      -0.834000       16.0000           0
     16682 TIP3     1584     TP3      H1       HW       0.417000       1.00800           0
     16683 TIP3     1584     TP3      H2       HW       0.417000       1.00800           0
     16684 TIP3     1585     TP3      O        OW      -0.834000       16.0000           0
     16685 TIP3     1585     TP3      H1       HW       0.417000       1.00800           0
     16686 TIP3     1585     TP3      H2       HW       0.417000       1.00800           0
     16687 TIP3     1586     TP3      O        OW      -0.834000       16.0000           0
     16688 TIP3     1586     TP3      H1       HW       0.417000       1.00800           0
     16689 TIP3     1586     TP3      H2       HW       0.417000       1.00800           0
     16690 TIP3     1587     TP3      O        OW      -0.834000       16.0000           0
     16691 TIP3     1587     TP3      H1       HW       0.417000       1.00800           0
     16692 TIP3     1587     TP3      H2       HW       0.417000       1.00800           0
     16693 TIP3     1588     TP3      O        OW      -0.834000       16.0000           0
     16694 TIP3     1588     TP3      H1       HW       0.417000       1.00800           0
     16695 TIP3     1588     TP3      H2       HW       0.417000       1.00800           0
     16696 TIP3     1589     TP3      O        OW      -0.834000       16.0000           0
     16697 TIP3     1589     TP3      H1       HW       0.417000       1.00800           0
     16698 TIP3     1589     TP3      H2       HW       0.417000       1.00800           0
     16699 TIP3     1590     TP3      O        OW      -0.834000       16.0000           0
     16700 TIP3     1590     TP3      H1       HW       0.417000       1.00800           0
     16701 TIP3     1590     TP3      H2       HW       0.417000       1.00800           0
     16702 TIP3     1591     TP3      O        OW      -0.834000       16.0000           0
     16703 TIP3     1591     TP3      H1       HW       0.417000       1.00800           0
     16704 TIP3     1591     TP3      H2       HW       0.417000       1.00800           0
     16705 TIP3     1592     TP3      O        OW      -0.834000       16.0000           0
     16706 TIP3     1592     TP3      H1       HW       0.417000       1.00800           0
     16707 TIP3     1592     TP3      H2       HW       0.417000       1.00800           0
     16708 TIP3     1593     TP3      O        OW      -0.834000       16.0000           0
     16709 TIP3     1593     TP3      H1       HW       0.417000       1.00800           0
     16710 TIP3     1593     TP3      H2       HW       0.417000       1.00800           0
     16711 TIP3     1594     TP3      O        OW      -0.834000       16.0000           0
     16712 TIP3     1594     TP3      H1       HW       0.417000       1.00800           0
     16713 TIP3     1594     TP3      H2       HW       0.417000       1.00800           0
     16714 TIP3     1595     TP3      O        OW      -0.834000       16.0000           0
     16715 TIP3     1595     TP3      H1       HW       0.417000       1.00800           0
     16716 TIP3     1595     TP3      H2       HW       0.417000       1.00800           0
     16717 TIP3     1596     TP3      O        OW      -0.834000       16.0000           0
     16718 TIP3     1596     TP3      H1       HW       0.417000       1.00800           0
     16719 TIP3     1596     TP3      H2       HW       0.417000       1.00800           0
     16720 TIP3     1597     TP3      O        OW      -0.834000       16.0000           0
     16721 TIP3     1597     TP3      H1       HW       0.417000       1.00800           0
     16722 TIP3     1597     TP3      H2       HW       0.417000       1.00800           0
     16723 TIP3     1598     TP3      O        OW      -0.834000       16.0000           0
     16724 TIP3     1598     TP3      H1       HW       0.417000       1.00800           0
     16725 TIP3     1598     TP3      H2       HW       0.417000       1.00800           0
     16726 TIP3     1599     TP3      O        OW      -0.834000       16.0000           0
     16727 TIP3     1599     TP3      H1       HW       0.417000       1.00800           0
     16728 TIP3     1599     TP3      H2       HW       0.417000       1.00800           0
     16729 TIP3     1600     TP3      O        OW      -0.834000       16.0000           0
     16730 TIP3     1600     TP3      H1       HW       0.417000       1.00800           0
     16731 TIP3     1600     TP3      H2       HW       0.417000       1.00800           0
     16732 TIP3     1601     TP3      O        OW      -0.834000       16.0000           0
     16733 TIP3     1601     TP3      H1       HW       0.417000       1.00800           0
     16734 TIP3     1601     TP3      H2       HW       0.417000       1.00800           0
     16735 TIP3     1602     TP3      O        OW      -0.834000       16.0000           0
     16736 TIP3     1602     TP3      H1       HW       0.417000       1.00800           0
     16737 TIP3     1602     TP3      H2       HW       0.417000       1.00800           0
     16738 TIP3     1603     TP3      O        OW      -0.834000       16.0000           0
     16739 TIP3     1603     TP3      H1       HW       0.417000       1.00800           0
     16740 TIP3     1603     TP3      H2       HW       0.417000       1.00800           0
     16741 TIP3     1604     TP3      O        OW      -0.834000       16.0000           0
     16742 TIP3     1604     TP3      H1       HW       0.417000       1.00800           0
     16743 TIP3     1604     TP3      H2       HW       0.417000       1.00800           0
     16744 TIP3     1605     TP3      O        OW      -0.834000       16.0000           0
     16745 TIP3     1605     TP3      H1       HW       0.417000       1.00800           0
     16746 TIP3     1605     TP3      H2       HW       0.417000       1.00800           0
     16747 TIP3     1606     TP3      O        OW      -0.834000       16.0000           0
     16748 TIP3     1606     TP3      H1       HW       0.417000       1.00800           0
     16749 TIP3     1606     TP3      H2       HW       0.417000       1.00800           0
     16750 TIP3     1607     TP3      O        OW      -0.834000       16.0000           0
     16751 TIP3     1607     TP3      H1       HW       0.417000       1.00800           0
     16752 TIP3     1607     TP3      H2       HW       0.417000       1.00800           0
     16753 TIP3     1608     TP3      O        OW      -0.834000       16.0000           0
     16754 TIP3     1608     TP3      H1       HW       0.417000       1.00800           0
     16755 TIP3     1608     TP3      H2       HW       0.417000       1.00800           0
     16756 TIP3     1609     TP3      O        OW      -0.834000       16.0000           0
     16757 TIP3     1609     TP3      H1       HW       0.417000       1.00800           0
     16758 TIP3     1609     TP3      H2       HW       0.417000       1.00800           0
     16759 TIP3     1610     TP3      O        OW      -0.834000       16.0000           0
     16760 TIP3     1610     TP3      H1       HW       0.417000       1.00800           0
     16761 TIP3     1610     TP3      H2       HW       0.417000       1.00800           0
     16762 TIP3     1611     TP3      O        OW      -0.834000       16.0000           0
     16763 TIP3     1611     TP3      H1       HW       0.417000       1.00800           0
     16764 TIP3     1611     TP3      H2       HW       0.417000       1.00800           0
     16765 TIP3     1612     TP3      O        OW      -0.834000       16.0000           0
     16766 TIP3     1612     TP3      H1       HW       0.417000       1.00800           0
     16767 TIP3     1612     TP3      H2       HW       0.417000       1.00800           0
     16768 TIP3     1613     TP3      O        OW      -0.834000       16.0000           0
     16769 TIP3     1613     TP3      H1       HW       0.417000       1.00800           0
     16770 TIP3     1613     TP3      H2       HW       0.417000       1.00800           0
     16771 TIP3     1614     TP3      O        OW      -0.834000       16.0000           0
     16772 TIP3     1614     TP3      H1       HW       0.417000       1.00800           0
     16773 TIP3     1614     TP3      H2       HW       0.417000       1.00800           0
     16774 TIP3     1615     TP3      O        OW      -0.834000       16.0000           0
     16775 TIP3     1615     TP3      H1       HW       0.417000       1.00800           0
     16776 TIP3     1615     TP3      H2       HW       0.417000       1.00800           0
     16777 TIP3     1616     TP3      O        OW      -0.834000       16.0000           0
     16778 TIP3     1616     TP3      H1       HW       0.417000       1.00800           0
     16779 TIP3     1616     TP3      H2       HW       0.417000       1.00800           0
     16780 TIP3     1617     TP3      O        OW      -0.834000       16.0000           0
     16781 TIP3     1617     TP3      H1       HW       0.417000       1.00800           0
     16782 TIP3     1617     TP3      H2       HW       0.417000       1.00800           0
     16783 TIP3     1618     TP3      O        OW      -0.834000       16.0000           0
     16784 TIP3     1618     TP3      H1       HW       0.417000       1.00800           0
     16785 TIP3     1618     TP3      H2       HW       0.417000       1.00800           0
     16786 TIP3     1619     TP3      O        OW      -0.834000       16.0000           0
     16787 TIP3     1619     TP3      H1       HW       0.417000       1.00800           0
     16788 TIP3     1619     TP3      H2       HW       0.417000       1.00800           0
     16789 TIP3     1620     TP3      O        OW      -0.834000       16.0000           0
     16790 TIP3     1620     TP3      H1       HW       0.417000       1.00800           0
     16791 TIP3     1620     TP3      H2       HW       0.417000       1.00800           0
     16792 TIP3     1621     TP3      O        OW      -0.834000       16.0000           0
     16793 TIP3     1621     TP3      H1       HW       0.417000       1.00800           0
     16794 TIP3     1621     TP3      H2       HW       0.417000       1.00800           0
     16795 TIP3     1622     TP3      O        OW      -0.834000       16.0000           0
     16796 TIP3     1622     TP3      H1       HW       0.417000       1.00800           0
     16797 TIP3     1622     TP3      H2       HW       0.417000       1.00800           0
     16798 TIP3     1623     TP3      O        OW      -0.834000       16.0000           0
     16799 TIP3     1623     TP3      H1       HW       0.417000       1.00800           0
     16800 TIP3     1623     TP3      H2       HW       0.417000       1.00800           0
     16801 TIP3     1624     TP3      O        OW      -0.834000       16.0000           0
     16802 TIP3     1624     TP3      H1       HW       0.417000       1.00800           0
     16803 TIP3     1624     TP3      H2       HW       0.417000       1.00800           0
     16804 TIP3     1625     TP3      O        OW      -0.834000       16.0000           0
     16805 TIP3     1625     TP3      H1       HW       0.417000       1.00800           0
     16806 TIP3     1625     TP3      H2       HW       0.417000       1.00800           0
     16807 TIP3     1626     TP3      O        OW      -0.834000       16.0000           0
     16808 TIP3     1626     TP3      H1       HW       0.417000       1.00800           0
     16809 TIP3     1626     TP3      H2       HW       0.417000       1.00800           0
     16810 TIP3     1627     TP3      O        OW      -0.834000       16.0000           0
     16811 TIP3     1627     TP3      H1       HW       0.417000       1.00800           0
     16812 TIP3     1627     TP3      H2       HW       0.417000       1.00800           0
     16813 TIP3     1628     TP3      O        OW      -0.834000       16.0000           0
     16814 TIP3     1628     TP3      H1       HW       0.417000       1.00800           0
     16815 TIP3     1628     TP3      H2       HW       0.417000       1.00800           0
     16816 TIP3     1629     TP3      O        OW      -0.834000       16.0000           0
     16817 TIP3     1629     TP3      H1       HW       0.417000       1.00800           0
     16818 TIP3     1629     TP3      H2       HW       0.417000       1.00800           0
     16819 TIP3     1630     TP3      O        OW      -0.834000       16.0000           0
     16820 TIP3     1630     TP3      H1       HW       0.417000       1.00800           0
     16821 TIP3     1630     TP3      H2       HW       0.417000       1.00800           0
     16822 TIP3     1631     TP3      O        OW      -0.834000       16.0000           0
     16823 TIP3     1631     TP3      H1       HW       0.417000       1.00800           0
     16824 TIP3     1631     TP3      H2       HW       0.417000       1.00800           0
     16825 TIP3     1632     TP3      O        OW      -0.834000       16.0000           0
     16826 TIP3     1632     TP3      H1       HW       0.417000       1.00800           0
     16827 TIP3     1632     TP3      H2       HW       0.417000       1.00800           0
     16828 TIP3     1633     TP3      O        OW      -0.834000       16.0000           0
     16829 TIP3     1633     TP3      H1       HW       0.417000       1.00800           0
     16830 TIP3     1633     TP3      H2       HW       0.417000       1.00800           0
     16831 TIP3     1634     TP3      O        OW      -0.834000       16.0000           0
     16832 TIP3     1634     TP3      H1       HW       0.417000       1.00800           0
     16833 TIP3     1634     TP3      H2       HW       0.417000       1.00800           0
     16834 TIP3     1635     TP3      O        OW      -0.834000       16.0000           0
     16835 TIP3     1635     TP3      H1       HW       0.417000       1.00800           0
     16836 TIP3     1635     TP3      H2       HW       0.417000       1.00800           0
     16837 TIP3     1636     TP3      O        OW      -0.834000       16.0000           0
     16838 TIP3     1636     TP3      H1       HW       0.417000       1.00800           0
     16839 TIP3     1636     TP3      H2       HW       0.417000       1.00800           0
     16840 TIP3     1637     TP3      O        OW      -0.834000       16.0000           0
     16841 TIP3     1637     TP3      H1       HW       0.417000       1.00800           0
     16842 TIP3     1637     TP3      H2       HW       0.417000       1.00800           0
     16843 TIP3     1638     TP3      O        OW      -0.834000       16.0000           0
     16844 TIP3     1638     TP3      H1       HW       0.417000       1.00800           0
     16845 TIP3     1638     TP3      H2       HW       0.417000       1.00800           0
     16846 TIP3     1639     TP3      O        OW      -0.834000       16.0000           0
     16847 TIP3     1639     TP3      H1       HW       0.417000       1.00800           0
     16848 TIP3     1639     TP3      H2       HW       0.417000       1.00800           0
     16849 TIP3     1640     TP3      O        OW      -0.834000       16.0000           0
     16850 TIP3     1640     TP3      H1       HW       0.417000       1.00800           0
     16851 TIP3     1640     TP3      H2       HW       0.417000       1.00800           0
     16852 TIP3     1641     TP3      O        OW      -0.834000       16.0000           0
     16853 TIP3     1641     TP3      H1       HW       0.417000       1.00800           0
     16854 TIP3     1641     TP3      H2       HW       0.417000       1.00800           0
     16855 TIP3     1642     TP3      O        OW      -0.834000       16.0000           0
     16856 TIP3     1642     TP3      H1       HW       0.417000       1.00800           0
     16857 TIP3     1642     TP3      H2       HW       0.417000       1.00800           0
     16858 TIP3     1643     TP3      O        OW      -0.834000       16.0000           0
     16859 TIP3     1643     TP3      H1       HW       0.417000       1.00800           0
     16860 TIP3     1643     TP3      H2       HW       0.417000       1.00800           0
     16861 TIP3     1644     TP3      O        OW      -0.834000       16.0000           0
     16862 TIP3     1644     TP3      H1       HW       0.417000       1.00800           0
     16863 TIP3     1644     TP3      H2       HW       0.417000       1.00800           0
     16864 TIP3     1645     TP3      O        OW      -0.834000       16.0000           0
     16865 TIP3     1645     TP3      H1       HW       0.417000       1.00800           0
     16866 TIP3     1645     TP3      H2       HW       0.417000       1.00800           0
     16867 TIP3     1646     TP3      O        OW      -0.834000       16.0000           0
     16868 TIP3     1646     TP3      H1       HW       0.417000       1.00800           0
     16869 TIP3     1646     TP3      H2       HW       0.417000       1.00800           0
     16870 TIP3     1647     TP3      O        OW      -0.834000       16.0000           0
     16871 TIP3     1647     TP3      H1       HW       0.417000       1.00800           0
     16872 TIP3     1647     TP3      H2       HW       0.417000       1.00800           0
     16873 TIP3     1648     TP3      O        OW      -0.834000       16.0000           0
     16874 TIP3     1648     TP3      H1       HW       0.417000       1.00800           0
     16875 TIP3     1648     TP3      H2       HW       0.417000       1.00800           0
     16876 TIP3     1649     TP3      O        OW      -0.834000       16.0000           0
     16877 TIP3     1649     TP3      H1       HW       0.417000       1.00800           0
     16878 TIP3     1649     TP3      H2       HW       0.417000       1.00800           0
     16879 TIP3     1650     TP3      O        OW      -0.834000       16.0000           0
     16880 TIP3     1650     TP3      H1       HW       0.417000       1.00800           0
     16881 TIP3     1650     TP3      H2       HW       0.417000       1.00800           0
     16882 TIP3     1651     TP3      O        OW      -0.834000       16.0000           0
     16883 TIP3     1651     TP3      H1       HW       0.417000       1.00800           0
     16884 TIP3     1651     TP3      H2       HW       0.417000       1.00800           0
     16885 TIP3     1652     TP3      O        OW      -0.834000       16.0000           0
     16886 TIP3     1652     TP3      H1       HW       0.417000       1.00800           0
     16887 TIP3     1652     TP3      H2       HW       0.417000       1.00800           0
     16888 TIP3     1653     TP3      O        OW      -0.834000       16.0000           0
     16889 TIP3     1653     TP3      H1       HW       0.417000       1.00800           0
     16890 TIP3     1653     TP3      H2       HW       0.417000       1.00800           0
     16891 TIP3     1654     TP3      O        OW      -0.834000       16.0000           0
     16892 TIP3     1654     TP3      H1       HW       0.417000       1.00800           0
     16893 TIP3     1654     TP3      H2       HW       0.417000       1.00800           0
     16894 TIP3     1655     TP3      O        OW      -0.834000       16.0000           0
     16895 TIP3     1655     TP3      H1       HW       0.417000       1.00800           0
     16896 TIP3     1655     TP3      H2       HW       0.417000       1.00800           0
     16897 TIP3     1656     TP3      O        OW      -0.834000       16.0000           0
     16898 TIP3     1656     TP3      H1       HW       0.417000       1.00800           0
     16899 TIP3     1656     TP3      H2       HW       0.417000       1.00800           0
     16900 TIP3     1657     TP3      O        OW      -0.834000       16.0000           0
     16901 TIP3     1657     TP3      H1       HW       0.417000       1.00800           0
     16902 TIP3     1657     TP3      H2       HW       0.417000       1.00800           0
     16903 TIP3     1658     TP3      O        OW      -0.834000       16.0000           0
     16904 TIP3     1658     TP3      H1       HW       0.417000       1.00800           0
     16905 TIP3     1658     TP3      H2       HW       0.417000       1.00800           0
     16906 TIP3     1659     TP3      O        OW      -0.834000       16.0000           0
     16907 TIP3     1659     TP3      H1       HW       0.417000       1.00800           0
     16908 TIP3     1659     TP3      H2       HW       0.417000       1.00800           0
     16909 TIP3     1660     TP3      O        OW      -0.834000       16.0000           0
     16910 TIP3     1660     TP3      H1       HW       0.417000       1.00800           0
     16911 TIP3     1660     TP3      H2       HW       0.417000       1.00800           0
     16912 TIP3     1661     TP3      O        OW      -0.834000       16.0000           0
     16913 TIP3     1661     TP3      H1       HW       0.417000       1.00800           0
     16914 TIP3     1661     TP3      H2       HW       0.417000       1.00800           0
     16915 TIP3     1662     TP3      O        OW      -0.834000       16.0000           0
     16916 TIP3     1662     TP3      H1       HW       0.417000       1.00800           0
     16917 TIP3     1662     TP3      H2       HW       0.417000       1.00800           0
     16918 TIP3     1663     TP3      O        OW      -0.834000       16.0000           0
     16919 TIP3     1663     TP3      H1       HW       0.417000       1.00800           0
     16920 TIP3     1663     TP3      H2       HW       0.417000       1.00800           0
     16921 TIP3     1664     TP3      O        OW      -0.834000       16.0000           0
     16922 TIP3     1664     TP3      H1       HW       0.417000       1.00800           0
     16923 TIP3     1664     TP3      H2       HW       0.417000       1.00800           0
     16924 TIP3     1665     TP3      O        OW      -0.834000       16.0000           0
     16925 TIP3     1665     TP3      H1       HW       0.417000       1.00800           0
     16926 TIP3     1665     TP3      H2       HW       0.417000       1.00800           0
     16927 TIP3     1666     TP3      O        OW      -0.834000       16.0000           0
     16928 TIP3     1666     TP3      H1       HW       0.417000       1.00800           0
     16929 TIP3     1666     TP3      H2       HW       0.417000       1.00800           0
     16930 TIP3     1667     TP3      O        OW      -0.834000       16.0000           0
     16931 TIP3     1667     TP3      H1       HW       0.417000       1.00800           0
     16932 TIP3     1667     TP3      H2       HW       0.417000       1.00800           0
     16933 TIP3     1668     TP3      O        OW      -0.834000       16.0000           0
     16934 TIP3     1668     TP3      H1       HW       0.417000       1.00800           0
     16935 TIP3     1668     TP3      H2       HW       0.417000       1.00800           0
     16936 TIP3     1669     TP3      O        OW      -0.834000       16.0000           0
     16937 TIP3     1669     TP3      H1       HW       0.417000       1.00800           0
     16938 TIP3     1669     TP3      H2       HW       0.417000       1.00800           0
     16939 TIP3     1670     TP3      O        OW      -0.834000       16.0000           0
     16940 TIP3     1670     TP3      H1       HW       0.417000       1.00800           0
     16941 TIP3     1670     TP3      H2       HW       0.417000       1.00800           0
     16942 TIP3     1671     TP3      O        OW      -0.834000       16.0000           0
     16943 TIP3     1671     TP3      H1       HW       0.417000       1.00800           0
     16944 TIP3     1671     TP3      H2       HW       0.417000       1.00800           0
     16945 TIP3     1672     TP3      O        OW      -0.834000       16.0000           0
     16946 TIP3     1672     TP3      H1       HW       0.417000       1.00800           0
     16947 TIP3     1672     TP3      H2       HW       0.417000       1.00800           0
     16948 TIP3     1673     TP3      O        OW      -0.834000       16.0000           0
     16949 TIP3     1673     TP3      H1       HW       0.417000       1.00800           0
     16950 TIP3     1673     TP3      H2       HW       0.417000       1.00800           0
     16951 TIP3     1674     TP3      O        OW      -0.834000       16.0000           0
     16952 TIP3     1674     TP3      H1       HW       0.417000       1.00800           0
     16953 TIP3     1674     TP3      H2       HW       0.417000       1.00800           0
     16954 TIP3     1675     TP3      O        OW      -0.834000       16.0000           0
     16955 TIP3     1675     TP3      H1       HW       0.417000       1.00800           0
     16956 TIP3     1675     TP3      H2       HW       0.417000       1.00800           0
     16957 TIP3     1676     TP3      O        OW      -0.834000       16.0000           0
     16958 TIP3     1676     TP3      H1       HW       0.417000       1.00800           0
     16959 TIP3     1676     TP3      H2       HW       0.417000       1.00800           0
     16960 TIP3     1677     TP3      O        OW      -0.834000       16.0000           0
     16961 TIP3     1677     TP3      H1       HW       0.417000       1.00800           0
     16962 TIP3     1677     TP3      H2       HW       0.417000       1.00800           0
     16963 TIP3     1678     TP3      O        OW      -0.834000       16.0000           0
     16964 TIP3     1678     TP3      H1       HW       0.417000       1.00800           0
     16965 TIP3     1678     TP3      H2       HW       0.417000       1.00800           0
     16966 TIP3     1679     TP3      O        OW      -0.834000       16.0000           0
     16967 TIP3     1679     TP3      H1       HW       0.417000       1.00800           0
     16968 TIP3     1679     TP3      H2       HW       0.417000       1.00800           0
     16969 TIP3     1680     TP3      O        OW      -0.834000       16.0000           0
     16970 TIP3     1680     TP3      H1       HW       0.417000       1.00800           0
     16971 TIP3     1680     TP3      H2       HW       0.417000       1.00800           0
     16972 TIP3     1681     TP3      O        OW      -0.834000       16.0000           0
     16973 TIP3     1681     TP3      H1       HW       0.417000       1.00800           0
     16974 TIP3     1681     TP3      H2       HW       0.417000       1.00800           0
     16975 TIP3     1682     TP3      O        OW      -0.834000       16.0000           0
     16976 TIP3     1682     TP3      H1       HW       0.417000       1.00800           0
     16977 TIP3     1682     TP3      H2       HW       0.417000       1.00800           0
     16978 TIP3     1683     TP3      O        OW      -0.834000       16.0000           0
     16979 TIP3     1683     TP3      H1       HW       0.417000       1.00800           0
     16980 TIP3     1683     TP3      H2       HW       0.417000       1.00800           0
     16981 TIP3     1684     TP3      O        OW      -0.834000       16.0000           0
     16982 TIP3     1684     TP3      H1       HW       0.417000       1.00800           0
     16983 TIP3     1684     TP3      H2       HW       0.417000       1.00800           0
     16984 TIP3     1685     TP3      O        OW      -0.834000       16.0000           0
     16985 TIP3     1685     TP3      H1       HW       0.417000       1.00800           0
     16986 TIP3     1685     TP3      H2       HW       0.417000       1.00800           0
     16987 TIP3     1686     TP3      O        OW      -0.834000       16.0000           0
     16988 TIP3     1686     TP3      H1       HW       0.417000       1.00800           0
     16989 TIP3     1686     TP3      H2       HW       0.417000       1.00800           0
     16990 TIP3     1687     TP3      O        OW      -0.834000       16.0000           0
     16991 TIP3     1687     TP3      H1       HW       0.417000       1.00800           0
     16992 TIP3     1687     TP3      H2       HW       0.417000       1.00800           0
     16993 TIP3     1688     TP3      O        OW      -0.834000       16.0000           0
     16994 TIP3     1688     TP3      H1       HW       0.417000       1.00800           0
     16995 TIP3     1688     TP3      H2       HW       0.417000       1.00800           0
     16996 TIP3     1689     TP3      O        OW      -0.834000       16.0000           0
     16997 TIP3     1689     TP3      H1       HW       0.417000       1.00800           0
     16998 TIP3     1689     TP3      H2       HW       0.417000       1.00800           0
     16999 TIP3     1690     TP3      O        OW      -0.834000       16.0000           0
     17000 TIP3     1690     TP3      H1       HW       0.417000       1.00800           0
     17001 TIP3     1690     TP3      H2       HW       0.417000       1.00800           0
     17002 TIP3     1691     TP3      O        OW      -0.834000       16.0000           0
     17003 TIP3     1691     TP3      H1       HW       0.417000       1.00800           0
     17004 TIP3     1691     TP3      H2       HW       0.417000       1.00800           0
     17005 TIP3     1692     TP3      O        OW      -0.834000       16.0000           0
     17006 TIP3     1692     TP3      H1       HW       0.417000       1.00800           0
     17007 TIP3     1692     TP3      H2       HW       0.417000       1.00800           0
     17008 TIP3     1693     TP3      O        OW      -0.834000       16.0000           0
     17009 TIP3     1693     TP3      H1       HW       0.417000       1.00800           0
     17010 TIP3     1693     TP3      H2       HW       0.417000       1.00800           0
     17011 TIP3     1694     TP3      O        OW      -0.834000       16.0000           0
     17012 TIP3     1694     TP3      H1       HW       0.417000       1.00800           0
     17013 TIP3     1694     TP3      H2       HW       0.417000       1.00800           0
     17014 TIP3     1695     TP3      O        OW      -0.834000       16.0000           0
     17015 TIP3     1695     TP3      H1       HW       0.417000       1.00800           0
     17016 TIP3     1695     TP3      H2       HW       0.417000       1.00800           0
     17017 TIP3     1696     TP3      O        OW      -0.834000       16.0000           0
     17018 TIP3     1696     TP3      H1       HW       0.417000       1.00800           0
     17019 TIP3     1696     TP3      H2       HW       0.417000       1.00800           0
     17020 TIP3     1697     TP3      O        OW      -0.834000       16.0000           0
     17021 TIP3     1697     TP3      H1       HW       0.417000       1.00800           0
     17022 TIP3     1697     TP3      H2       HW       0.417000       1.00800           0
     17023 TIP3     1698     TP3      O        OW      -0.834000       16.0000           0
     17024 TIP3     1698     TP3      H1       HW       0.417000       1.00800           0
     17025 TIP3     1698     TP3      H2       HW       0.417000       1.00800           0
     17026 TIP3     1699     TP3      O        OW      -0.834000       16.0000           0
     17027 TIP3     1699     TP3      H1       HW       0.417000       1.00800           0
     17028 TIP3     1699     TP3      H2       HW       0.417000       1.00800           0
     17029 TIP3     1700     TP3      O        OW      -0.834000       16.0000           0
     17030 TIP3     1700     TP3      H1       HW       0.417000       1.00800           0
     17031 TIP3     1700     TP3      H2       HW       0.417000       1.00800           0
     17032 TIP3     1701     TP3      O        OW      -0.834000       16.0000           0
     17033 TIP3     1701     TP3      H1       HW       0.417000       1.00800           0
     17034 TIP3     1701     TP3      H2       HW       0.417000       1.00800           0
     17035 TIP3     1702     TP3      O        OW      -0.834000       16.0000           0
     17036 TIP3     1702     TP3      H1       HW       0.417000       1.00800           0
     17037 TIP3     1702     TP3      H2       HW       0.417000       1.00800           0
     17038 TIP3     1703     TP3      O        OW      -0.834000       16.0000           0
     17039 TIP3     1703     TP3      H1       HW       0.417000       1.00800           0
     17040 TIP3     1703     TP3      H2       HW       0.417000       1.00800           0
     17041 TIP3     1704     TP3      O        OW      -0.834000       16.0000           0
     17042 TIP3     1704     TP3      H1       HW       0.417000       1.00800           0
     17043 TIP3     1704     TP3      H2       HW       0.417000       1.00800           0
     17044 TIP3     1705     TP3      O        OW      -0.834000       16.0000           0
     17045 TIP3     1705     TP3      H1       HW       0.417000       1.00800           0
     17046 TIP3     1705     TP3      H2       HW       0.417000       1.00800           0
     17047 TIP3     1706     TP3      O        OW      -0.834000       16.0000           0
     17048 TIP3     1706     TP3      H1       HW       0.417000       1.00800           0
     17049 TIP3     1706     TP3      H2       HW       0.417000       1.00800           0
     17050 TIP3     1707     TP3      O        OW      -0.834000       16.0000           0
     17051 TIP3     1707     TP3      H1       HW       0.417000       1.00800           0
     17052 TIP3     1707     TP3      H2       HW       0.417000       1.00800           0
     17053 TIP3     1708     TP3      O        OW      -0.834000       16.0000           0
     17054 TIP3     1708     TP3      H1       HW       0.417000       1.00800           0
     17055 TIP3     1708     TP3      H2       HW       0.417000       1.00800           0
     17056 TIP3     1709     TP3      O        OW      -0.834000       16.0000           0
     17057 TIP3     1709     TP3      H1       HW       0.417000       1.00800           0
     17058 TIP3     1709     TP3      H2       HW       0.417000       1.00800           0
     17059 TIP3     1710     TP3      O        OW      -0.834000       16.0000           0
     17060 TIP3     1710     TP3      H1       HW       0.417000       1.00800           0
     17061 TIP3     1710     TP3      H2       HW       0.417000       1.00800           0
     17062 TIP3     1711     TP3      O        OW      -0.834000       16.0000           0
     17063 TIP3     1711     TP3      H1       HW       0.417000       1.00800           0
     17064 TIP3     1711     TP3      H2       HW       0.417000       1.00800           0
     17065 TIP3     1712     TP3      O        OW      -0.834000       16.0000           0
     17066 TIP3     1712     TP3      H1       HW       0.417000       1.00800           0
     17067 TIP3     1712     TP3      H2       HW       0.417000       1.00800           0
     17068 TIP3     1713     TP3      O        OW      -0.834000       16.0000           0
     17069 TIP3     1713     TP3      H1       HW       0.417000       1.00800           0
     17070 TIP3     1713     TP3      H2       HW       0.417000       1.00800           0
     17071 TIP3     1714     TP3      O        OW      -0.834000       16.0000           0
     17072 TIP3     1714     TP3      H1       HW       0.417000       1.00800           0
     17073 TIP3     1714     TP3      H2       HW       0.417000       1.00800           0
     17074 TIP3     1715     TP3      O        OW      -0.834000       16.0000           0
     17075 TIP3     1715     TP3      H1       HW       0.417000       1.00800           0
     17076 TIP3     1715     TP3      H2       HW       0.417000       1.00800           0
     17077 TIP3     1716     TP3      O        OW      -0.834000       16.0000           0
     17078 TIP3     1716     TP3      H1       HW       0.417000       1.00800           0
     17079 TIP3     1716     TP3      H2       HW       0.417000       1.00800           0
     17080 TIP3     1717     TP3      O        OW      -0.834000       16.0000           0
     17081 TIP3     1717     TP3      H1       HW       0.417000       1.00800           0
     17082 TIP3     1717     TP3      H2       HW       0.417000       1.00800           0
     17083 TIP3     1718     TP3      O        OW      -0.834000       16.0000           0
     17084 TIP3     1718     TP3      H1       HW       0.417000       1.00800           0
     17085 TIP3     1718     TP3      H2       HW       0.417000       1.00800           0
     17086 TIP3     1719     TP3      O        OW      -0.834000       16.0000           0
     17087 TIP3     1719     TP3      H1       HW       0.417000       1.00800           0
     17088 TIP3     1719     TP3      H2       HW       0.417000       1.00800           0
     17089 TIP3     1720     TP3      O        OW      -0.834000       16.0000           0
     17090 TIP3     1720     TP3      H1       HW       0.417000       1.00800           0
     17091 TIP3     1720     TP3      H2       HW       0.417000       1.00800           0
     17092 TIP3     1721     TP3      O        OW      -0.834000       16.0000           0
     17093 TIP3     1721     TP3      H1       HW       0.417000       1.00800           0
     17094 TIP3     1721     TP3      H2       HW       0.417000       1.00800           0
     17095 TIP3     1722     TP3      O        OW      -0.834000       16.0000           0
     17096 TIP3     1722     TP3      H1       HW       0.417000       1.00800           0
     17097 TIP3     1722     TP3      H2       HW       0.417000       1.00800           0
     17098 TIP3     1723     TP3      O        OW      -0.834000       16.0000           0
     17099 TIP3     1723     TP3      H1       HW       0.417000       1.00800           0
     17100 TIP3     1723     TP3      H2       HW       0.417000       1.00800           0
     17101 TIP3     1724     TP3      O        OW      -0.834000       16.0000           0
     17102 TIP3     1724     TP3      H1       HW       0.417000       1.00800           0
     17103 TIP3     1724     TP3      H2       HW       0.417000       1.00800           0
     17104 TIP3     1725     TP3      O        OW      -0.834000       16.0000           0
     17105 TIP3     1725     TP3      H1       HW       0.417000       1.00800           0
     17106 TIP3     1725     TP3      H2       HW       0.417000       1.00800           0
     17107 TIP3     1726     TP3      O        OW      -0.834000       16.0000           0
     17108 TIP3     1726     TP3      H1       HW       0.417000       1.00800           0
     17109 TIP3     1726     TP3      H2       HW       0.417000       1.00800           0
     17110 TIP3     1727     TP3      O        OW      -0.834000       16.0000           0
     17111 TIP3     1727     TP3      H1       HW       0.417000       1.00800           0
     17112 TIP3     1727     TP3      H2       HW       0.417000       1.00800           0
     17113 TIP3     1728     TP3      O        OW      -0.834000       16.0000           0
     17114 TIP3     1728     TP3      H1       HW       0.417000       1.00800           0
     17115 TIP3     1728     TP3      H2       HW       0.417000       1.00800           0
     17116 TIP3     1729     TP3      O        OW      -0.834000       16.0000           0
     17117 TIP3     1729     TP3      H1       HW       0.417000       1.00800           0
     17118 TIP3     1729     TP3      H2       HW       0.417000       1.00800           0
     17119 TIP3     1730     TP3      O        OW      -0.834000       16.0000           0
     17120 TIP3     1730     TP3      H1       HW       0.417000       1.00800           0
     17121 TIP3     1730     TP3      H2       HW       0.417000       1.00800           0
     17122 TIP3     1731     TP3      O        OW      -0.834000       16.0000           0
     17123 TIP3     1731     TP3      H1       HW       0.417000       1.00800           0
     17124 TIP3     1731     TP3      H2       HW       0.417000       1.00800           0
     17125 TIP3     1732     TP3      O        OW      -0.834000       16.0000           0
     17126 TIP3     1732     TP3      H1       HW       0.417000       1.00800           0
     17127 TIP3     1732     TP3      H2       HW       0.417000       1.00800           0
     17128 TIP3     1733     TP3      O        OW      -0.834000       16.0000           0
     17129 TIP3     1733     TP3      H1       HW       0.417000       1.00800           0
     17130 TIP3     1733     TP3      H2       HW       0.417000       1.00800           0
     17131 TIP3     1734     TP3      O        OW      -0.834000       16.0000           0
     17132 TIP3     1734     TP3      H1       HW       0.417000       1.00800           0
     17133 TIP3     1734     TP3      H2       HW       0.417000       1.00800           0
     17134 TIP3     1735     TP3      O        OW      -0.834000       16.0000           0
     17135 TIP3     1735     TP3      H1       HW       0.417000       1.00800           0
     17136 TIP3     1735     TP3      H2       HW       0.417000       1.00800           0
     17137 TIP3     1736     TP3      O        OW      -0.834000       16.0000           0
     17138 TIP3     1736     TP3      H1       HW       0.417000       1.00800           0
     17139 TIP3     1736     TP3      H2       HW       0.417000       1.00800           0
     17140 TIP3     1737     TP3      O        OW      -0.834000       16.0000           0
     17141 TIP3     1737     TP3      H1       HW       0.417000       1.00800           0
     17142 TIP3     1737     TP3      H2       HW       0.417000       1.00800           0
     17143 TIP3     1738     TP3      O        OW      -0.834000       16.0000           0
     17144 TIP3     1738     TP3      H1       HW       0.417000       1.00800           0
     17145 TIP3     1738     TP3      H2       HW       0.417000       1.00800           0
     17146 TIP3     1739     TP3      O        OW      -0.834000       16.0000           0
     17147 TIP3     1739     TP3      H1       HW       0.417000       1.00800           0
     17148 TIP3     1739     TP3      H2       HW       0.417000       1.00800           0
     17149 TIP3     1740     TP3      O        OW      -0.834000       16.0000           0
     17150 TIP3     1740     TP3      H1       HW       0.417000       1.00800           0
     17151 TIP3     1740     TP3      H2       HW       0.417000       1.00800           0
     17152 TIP3     1741     TP3      O        OW      -0.834000       16.0000           0
     17153 TIP3     1741     TP3      H1       HW       0.417000       1.00800           0
     17154 TIP3     1741     TP3      H2       HW       0.417000       1.00800           0
     17155 TIP3     1742     TP3      O        OW      -0.834000       16.0000           0
     17156 TIP3     1742     TP3      H1       HW       0.417000       1.00800           0
     17157 TIP3     1742     TP3      H2       HW       0.417000       1.00800           0
     17158 TIP3     1743     TP3      O        OW      -0.834000       16.0000           0
     17159 TIP3     1743     TP3      H1       HW       0.417000       1.00800           0
     17160 TIP3     1743     TP3      H2       HW       0.417000       1.00800           0
     17161 TIP3     1744     TP3      O        OW      -0.834000       16.0000           0
     17162 TIP3     1744     TP3      H1       HW       0.417000       1.00800           0
     17163 TIP3     1744     TP3      H2       HW       0.417000       1.00800           0
     17164 TIP3     1745     TP3      O        OW      -0.834000       16.0000           0
     17165 TIP3     1745     TP3      H1       HW       0.417000       1.00800           0
     17166 TIP3     1745     TP3      H2       HW       0.417000       1.00800           0
     17167 TIP3     1746     TP3      O        OW      -0.834000       16.0000           0
     17168 TIP3     1746     TP3      H1       HW       0.417000       1.00800           0
     17169 TIP3     1746     TP3      H2       HW       0.417000       1.00800           0
     17170 TIP3     1747     TP3      O        OW      -0.834000       16.0000           0
     17171 TIP3     1747     TP3      H1       HW       0.417000       1.00800           0
     17172 TIP3     1747     TP3      H2       HW       0.417000       1.00800           0
     17173 TIP3     1748     TP3      O        OW      -0.834000       16.0000           0
     17174 TIP3     1748     TP3      H1       HW       0.417000       1.00800           0
     17175 TIP3     1748     TP3      H2       HW       0.417000       1.00800           0
     17176 TIP3     1749     TP3      O        OW      -0.834000       16.0000           0
     17177 TIP3     1749     TP3      H1       HW       0.417000       1.00800           0
     17178 TIP3     1749     TP3      H2       HW       0.417000       1.00800           0
     17179 TIP3     1750     TP3      O        OW      -0.834000       16.0000           0
     17180 TIP3     1750     TP3      H1       HW       0.417000       1.00800           0
     17181 TIP3     1750     TP3      H2       HW       0.417000       1.00800           0
     17182 TIP3     1751     TP3      O        OW      -0.834000       16.0000           0
     17183 TIP3     1751     TP3      H1       HW       0.417000       1.00800           0
     17184 TIP3     1751     TP3      H2       HW       0.417000       1.00800           0
     17185 TIP3     1752     TP3      O        OW      -0.834000       16.0000           0
     17186 TIP3     1752     TP3      H1       HW       0.417000       1.00800           0
     17187 TIP3     1752     TP3      H2       HW       0.417000       1.00800           0
     17188 TIP3     1753     TP3      O        OW      -0.834000       16.0000           0
     17189 TIP3     1753     TP3      H1       HW       0.417000       1.00800           0
     17190 TIP3     1753     TP3      H2       HW       0.417000       1.00800           0
     17191 TIP3     1754     TP3      O        OW      -0.834000       16.0000           0
     17192 TIP3     1754     TP3      H1       HW       0.417000       1.00800           0
     17193 TIP3     1754     TP3      H2       HW       0.417000       1.00800           0
     17194 TIP3     1755     TP3      O        OW      -0.834000       16.0000           0
     17195 TIP3     1755     TP3      H1       HW       0.417000       1.00800           0
     17196 TIP3     1755     TP3      H2       HW       0.417000       1.00800           0
     17197 TIP3     1756     TP3      O        OW      -0.834000       16.0000           0
     17198 TIP3     1756     TP3      H1       HW       0.417000       1.00800           0
     17199 TIP3     1756     TP3      H2       HW       0.417000       1.00800           0
     17200 TIP3     1757     TP3      O        OW      -0.834000       16.0000           0
     17201 TIP3     1757     TP3      H1       HW       0.417000       1.00800           0
     17202 TIP3     1757     TP3      H2       HW       0.417000       1.00800           0
     17203 TIP3     1758     TP3      O        OW      -0.834000       16.0000           0
     17204 TIP3     1758     TP3      H1       HW       0.417000       1.00800           0
     17205 TIP3     1758     TP3      H2       HW       0.417000       1.00800           0
     17206 TIP3     1759     TP3      O        OW      -0.834000       16.0000           0
     17207 TIP3     1759     TP3      H1       HW       0.417000       1.00800           0
     17208 TIP3     1759     TP3      H2       HW       0.417000       1.00800           0
     17209 TIP3     1760     TP3      O        OW      -0.834000       16.0000           0
     17210 TIP3     1760     TP3      H1       HW       0.417000       1.00800           0
     17211 TIP3     1760     TP3      H2       HW       0.417000       1.00800           0
     17212 TIP3     1761     TP3      O        OW      -0.834000       16.0000           0
     17213 TIP3     1761     TP3      H1       HW       0.417000       1.00800           0
     17214 TIP3     1761     TP3      H2       HW       0.417000       1.00800           0
     17215 TIP3     1762     TP3      O        OW      -0.834000       16.0000           0
     17216 TIP3     1762     TP3      H1       HW       0.417000       1.00800           0
     17217 TIP3     1762     TP3      H2       HW       0.417000       1.00800           0
     17218 TIP3     1763     TP3      O        OW      -0.834000       16.0000           0
     17219 TIP3     1763     TP3      H1       HW       0.417000       1.00800           0
     17220 TIP3     1763     TP3      H2       HW       0.417000       1.00800           0
     17221 TIP3     1764     TP3      O        OW      -0.834000       16.0000           0
     17222 TIP3     1764     TP3      H1       HW       0.417000       1.00800           0
     17223 TIP3     1764     TP3      H2       HW       0.417000       1.00800           0
     17224 TIP3     1765     TP3      O        OW      -0.834000       16.0000           0
     17225 TIP3     1765     TP3      H1       HW       0.417000       1.00800           0
     17226 TIP3     1765     TP3      H2       HW       0.417000       1.00800           0
     17227 TIP3     1766     TP3      O        OW      -0.834000       16.0000           0
     17228 TIP3     1766     TP3      H1       HW       0.417000       1.00800           0
     17229 TIP3     1766     TP3      H2       HW       0.417000       1.00800           0
     17230 TIP3     1767     TP3      O        OW      -0.834000       16.0000           0
     17231 TIP3     1767     TP3      H1       HW       0.417000       1.00800           0
     17232 TIP3     1767     TP3      H2       HW       0.417000       1.00800           0
     17233 TIP3     1768     TP3      O        OW      -0.834000       16.0000           0
     17234 TIP3     1768     TP3      H1       HW       0.417000       1.00800           0
     17235 TIP3     1768     TP3      H2       HW       0.417000       1.00800           0
     17236 TIP3     1769     TP3      O        OW      -0.834000       16.0000           0
     17237 TIP3     1769     TP3      H1       HW       0.417000       1.00800           0
     17238 TIP3     1769     TP3      H2       HW       0.417000       1.00800           0
     17239 TIP3     1770     TP3      O        OW      -0.834000       16.0000           0
     17240 TIP3     1770     TP3      H1       HW       0.417000       1.00800           0
     17241 TIP3     1770     TP3      H2       HW       0.417000       1.00800           0
     17242 TIP3     1771     TP3      O        OW      -0.834000       16.0000           0
     17243 TIP3     1771     TP3      H1       HW       0.417000       1.00800           0
     17244 TIP3     1771     TP3      H2       HW       0.417000       1.00800           0
     17245 TIP3     1772     TP3      O        OW      -0.834000       16.0000           0
     17246 TIP3     1772     TP3      H1       HW       0.417000       1.00800           0
     17247 TIP3     1772     TP3      H2       HW       0.417000       1.00800           0
     17248 TIP3     1773     TP3      O        OW      -0.834000       16.0000           0
     17249 TIP3     1773     TP3      H1       HW       0.417000       1.00800           0
     17250 TIP3     1773     TP3      H2       HW       0.417000       1.00800           0
     17251 TIP3     1774     TP3      O        OW      -0.834000       16.0000           0
     17252 TIP3     1774     TP3      H1       HW       0.417000       1.00800           0
     17253 TIP3     1774     TP3      H2       HW       0.417000       1.00800           0
     17254 TIP3     1775     TP3      O        OW      -0.834000       16.0000           0
     17255 TIP3     1775     TP3      H1       HW       0.417000       1.00800           0
     17256 TIP3     1775     TP3      H2       HW       0.417000       1.00800           0
     17257 TIP3     1776     TP3      O        OW      -0.834000       16.0000           0
     17258 TIP3     1776     TP3      H1       HW       0.417000       1.00800           0
     17259 TIP3     1776     TP3      H2       HW       0.417000       1.00800           0
     17260 TIP3     1777     TP3      O        OW      -0.834000       16.0000           0
     17261 TIP3     1777     TP3      H1       HW       0.417000       1.00800           0
     17262 TIP3     1777     TP3      H2       HW       0.417000       1.00800           0
     17263 TIP3     1778     TP3      O        OW      -0.834000       16.0000           0
     17264 TIP3     1778     TP3      H1       HW       0.417000       1.00800           0
     17265 TIP3     1778     TP3      H2       HW       0.417000       1.00800           0
     17266 TIP3     1779     TP3      O        OW      -0.834000       16.0000           0
     17267 TIP3     1779     TP3      H1       HW       0.417000       1.00800           0
     17268 TIP3     1779     TP3      H2       HW       0.417000       1.00800           0
     17269 TIP3     1780     TP3      O        OW      -0.834000       16.0000           0
     17270 TIP3     1780     TP3      H1       HW       0.417000       1.00800           0
     17271 TIP3     1780     TP3      H2       HW       0.417000       1.00800           0
     17272 TIP3     1781     TP3      O        OW      -0.834000       16.0000           0
     17273 TIP3     1781     TP3      H1       HW       0.417000       1.00800           0
     17274 TIP3     1781     TP3      H2       HW       0.417000       1.00800           0
     17275 TIP3     1782     TP3      O        OW      -0.834000       16.0000           0
     17276 TIP3     1782     TP3      H1       HW       0.417000       1.00800           0
     17277 TIP3     1782     TP3      H2       HW       0.417000       1.00800           0
     17278 TIP3     1783     TP3      O        OW      -0.834000       16.0000           0
     17279 TIP3     1783     TP3      H1       HW       0.417000       1.00800           0
     17280 TIP3     1783     TP3      H2       HW       0.417000       1.00800           0
     17281 TIP3     1784     TP3      O        OW      -0.834000       16.0000           0
     17282 TIP3     1784     TP3      H1       HW       0.417000       1.00800           0
     17283 TIP3     1784     TP3      H2       HW       0.417000       1.00800           0
     17284 TIP3     1785     TP3      O        OW      -0.834000       16.0000           0
     17285 TIP3     1785     TP3      H1       HW       0.417000       1.00800           0
     17286 TIP3     1785     TP3      H2       HW       0.417000       1.00800           0
     17287 TIP3     1786     TP3      O        OW      -0.834000       16.0000           0
     17288 TIP3     1786     TP3      H1       HW       0.417000       1.00800           0
     17289 TIP3     1786     TP3      H2       HW       0.417000       1.00800           0
     17290 TIP3     1787     TP3      O        OW      -0.834000       16.0000           0
     17291 TIP3     1787     TP3      H1       HW       0.417000       1.00800           0
     17292 TIP3     1787     TP3      H2       HW       0.417000       1.00800           0
     17293 TIP3     1788     TP3      O        OW      -0.834000       16.0000           0
     17294 TIP3     1788     TP3      H1       HW       0.417000       1.00800           0
     17295 TIP3     1788     TP3      H2       HW       0.417000       1.00800           0
     17296 TIP3     1789     TP3      O        OW      -0.834000       16.0000           0
     17297 TIP3     1789     TP3      H1       HW       0.417000       1.00800           0
     17298 TIP3     1789     TP3      H2       HW       0.417000       1.00800           0
     17299 TIP3     1790     TP3      O        OW      -0.834000       16.0000           0
     17300 TIP3     1790     TP3      H1       HW       0.417000       1.00800           0
     17301 TIP3     1790     TP3      H2       HW       0.417000       1.00800           0
     17302 TIP3     1791     TP3      O        OW      -0.834000       16.0000           0
     17303 TIP3     1791     TP3      H1       HW       0.417000       1.00800           0
     17304 TIP3     1791     TP3      H2       HW       0.417000       1.00800           0
     17305 TIP3     1792     TP3      O        OW      -0.834000       16.0000           0
     17306 TIP3     1792     TP3      H1       HW       0.417000       1.00800           0
     17307 TIP3     1792     TP3      H2       HW       0.417000       1.00800           0
     17308 TIP3     1793     TP3      O        OW      -0.834000       16.0000           0
     17309 TIP3     1793     TP3      H1       HW       0.417000       1.00800           0
     17310 TIP3     1793     TP3      H2       HW       0.417000       1.00800           0
     17311 TIP3     1794     TP3      O        OW      -0.834000       16.0000           0
     17312 TIP3     1794     TP3      H1       HW       0.417000       1.00800           0
     17313 TIP3     1794     TP3      H2       HW       0.417000       1.00800           0
     17314 TIP3     1795     TP3      O        OW      -0.834000       16.0000           0
     17315 TIP3     1795     TP3      H1       HW       0.417000       1.00800           0
     17316 TIP3     1795     TP3      H2       HW       0.417000       1.00800           0
     17317 TIP3     1796     TP3      O        OW      -0.834000       16.0000           0
     17318 TIP3     1796     TP3      H1       HW       0.417000       1.00800           0
     17319 TIP3     1796     TP3      H2       HW       0.417000       1.00800           0
     17320 TIP3     1797     TP3      O        OW      -0.834000       16.0000           0
     17321 TIP3     1797     TP3      H1       HW       0.417000       1.00800           0
     17322 TIP3     1797     TP3      H2       HW       0.417000       1.00800           0
     17323 TIP3     1798     TP3      O        OW      -0.834000       16.0000           0
     17324 TIP3     1798     TP3      H1       HW       0.417000       1.00800           0
     17325 TIP3     1798     TP3      H2       HW       0.417000       1.00800           0
     17326 TIP3     1799     TP3      O        OW      -0.834000       16.0000           0
     17327 TIP3     1799     TP3      H1       HW       0.417000       1.00800           0
     17328 TIP3     1799     TP3      H2       HW       0.417000       1.00800           0
     17329 TIP3     1800     TP3      O        OW      -0.834000       16.0000           0
     17330 TIP3     1800     TP3      H1       HW       0.417000       1.00800           0
     17331 TIP3     1800     TP3      H2       HW       0.417000       1.00800           0
     17332 TIP3     1801     TP3      O        OW      -0.834000       16.0000           0
     17333 TIP3     1801     TP3      H1       HW       0.417000       1.00800           0
     17334 TIP3     1801     TP3      H2       HW       0.417000       1.00800           0
     17335 TIP3     1802     TP3      O        OW      -0.834000       16.0000           0
     17336 TIP3     1802     TP3      H1       HW       0.417000       1.00800           0
     17337 TIP3     1802     TP3      H2       HW       0.417000       1.00800           0
     17338 TIP3     1803     TP3      O        OW      -0.834000       16.0000           0
     17339 TIP3     1803     TP3      H1       HW       0.417000       1.00800           0
     17340 TIP3     1803     TP3      H2       HW       0.417000       1.00800           0
     17341 TIP3     1804     TP3      O        OW      -0.834000       16.0000           0
     17342 TIP3     1804     TP3      H1       HW       0.417000       1.00800           0
     17343 TIP3     1804     TP3      H2       HW       0.417000       1.00800           0
     17344 TIP3     1805     TP3      O        OW      -0.834000       16.0000           0
     17345 TIP3     1805     TP3      H1       HW       0.417000       1.00800           0
     17346 TIP3     1805     TP3      H2       HW       0.417000       1.00800           0
     17347 TIP3     1806     TP3      O        OW      -0.834000       16.0000           0
     17348 TIP3     1806     TP3      H1       HW       0.417000       1.00800           0
     17349 TIP3     1806     TP3      H2       HW       0.417000       1.00800           0
     17350 TIP3     1807     TP3      O        OW      -0.834000       16.0000           0
     17351 TIP3     1807     TP3      H1       HW       0.417000       1.00800           0
     17352 TIP3     1807     TP3      H2       HW       0.417000       1.00800           0
     17353 TIP3     1808     TP3      O        OW      -0.834000       16.0000           0
     17354 TIP3     1808     TP3      H1       HW       0.417000       1.00800           0
     17355 TIP3     1808     TP3      H2       HW       0.417000       1.00800           0
     17356 TIP3     1809     TP3      O        OW      -0.834000       16.0000           0
     17357 TIP3     1809     TP3      H1       HW       0.417000       1.00800           0
     17358 TIP3     1809     TP3      H2       HW       0.417000       1.00800           0
     17359 TIP3     1810     TP3      O        OW      -0.834000       16.0000           0
     17360 TIP3     1810     TP3      H1       HW       0.417000       1.00800           0
     17361 TIP3     1810     TP3      H2       HW       0.417000       1.00800           0
     17362 TIP3     1811     TP3      O        OW      -0.834000       16.0000           0
     17363 TIP3     1811     TP3      H1       HW       0.417000       1.00800           0
     17364 TIP3     1811     TP3      H2       HW       0.417000       1.00800           0
     17365 TIP3     1812     TP3      O        OW      -0.834000       16.0000           0
     17366 TIP3     1812     TP3      H1       HW       0.417000       1.00800           0
     17367 TIP3     1812     TP3      H2       HW       0.417000       1.00800           0
     17368 TIP3     1813     TP3      O        OW      -0.834000       16.0000           0
     17369 TIP3     1813     TP3      H1       HW       0.417000       1.00800           0
     17370 TIP3     1813     TP3      H2       HW       0.417000       1.00800           0
     17371 TIP3     1814     TP3      O        OW      -0.834000       16.0000           0
     17372 TIP3     1814     TP3      H1       HW       0.417000       1.00800           0
     17373 TIP3     1814     TP3      H2       HW       0.417000       1.00800           0
     17374 TIP3     1815     TP3      O        OW      -0.834000       16.0000           0
     17375 TIP3     1815     TP3      H1       HW       0.417000       1.00800           0
     17376 TIP3     1815     TP3      H2       HW       0.417000       1.00800           0
     17377 TIP3     1816     TP3      O        OW      -0.834000       16.0000           0
     17378 TIP3     1816     TP3      H1       HW       0.417000       1.00800           0
     17379 TIP3     1816     TP3      H2       HW       0.417000       1.00800           0
     17380 TIP3     1817     TP3      O        OW      -0.834000       16.0000           0
     17381 TIP3     1817     TP3      H1       HW       0.417000       1.00800           0
     17382 TIP3     1817     TP3      H2       HW       0.417000       1.00800           0
     17383 TIP3     1818     TP3      O        OW      -0.834000       16.0000           0
     17384 TIP3     1818     TP3      H1       HW       0.417000       1.00800           0
     17385 TIP3     1818     TP3      H2       HW       0.417000       1.00800           0
     17386 TIP3     1819     TP3      O        OW      -0.834000       16.0000           0
     17387 TIP3     1819     TP3      H1       HW       0.417000       1.00800           0
     17388 TIP3     1819     TP3      H2       HW       0.417000       1.00800           0
     17389 TIP3     1820     TP3      O        OW      -0.834000       16.0000           0
     17390 TIP3     1820     TP3      H1       HW       0.417000       1.00800           0
     17391 TIP3     1820     TP3      H2       HW       0.417000       1.00800           0
     17392 TIP3     1821     TP3      O        OW      -0.834000       16.0000           0
     17393 TIP3     1821     TP3      H1       HW       0.417000       1.00800           0
     17394 TIP3     1821     TP3      H2       HW       0.417000       1.00800           0
     17395 TIP3     1822     TP3      O        OW      -0.834000       16.0000           0
     17396 TIP3     1822     TP3      H1       HW       0.417000       1.00800           0
     17397 TIP3     1822     TP3      H2       HW       0.417000       1.00800           0
     17398 TIP3     1823     TP3      O        OW      -0.834000       16.0000           0
     17399 TIP3     1823     TP3      H1       HW       0.417000       1.00800           0
     17400 TIP3     1823     TP3      H2       HW       0.417000       1.00800           0
     17401 TIP3     1824     TP3      O        OW      -0.834000       16.0000           0
     17402 TIP3     1824     TP3      H1       HW       0.417000       1.00800           0
     17403 TIP3     1824     TP3      H2       HW       0.417000       1.00800           0
     17404 TIP3     1825     TP3      O        OW      -0.834000       16.0000           0
     17405 TIP3     1825     TP3      H1       HW       0.417000       1.00800           0
     17406 TIP3     1825     TP3      H2       HW       0.417000       1.00800           0
     17407 TIP3     1826     TP3      O        OW      -0.834000       16.0000           0
     17408 TIP3     1826     TP3      H1       HW       0.417000       1.00800           0
     17409 TIP3     1826     TP3      H2       HW       0.417000       1.00800           0
     17410 TIP3     1827     TP3      O        OW      -0.834000       16.0000           0
     17411 TIP3     1827     TP3      H1       HW       0.417000       1.00800           0
     17412 TIP3     1827     TP3      H2       HW       0.417000       1.00800           0
     17413 TIP3     1828     TP3      O        OW      -0.834000       16.0000           0
     17414 TIP3     1828     TP3      H1       HW       0.417000       1.00800           0
     17415 TIP3     1828     TP3      H2       HW       0.417000       1.00800           0
     17416 TIP3     1829     TP3      O        OW      -0.834000       16.0000           0
     17417 TIP3     1829     TP3      H1       HW       0.417000       1.00800           0
     17418 TIP3     1829     TP3      H2       HW       0.417000       1.00800           0
     17419 TIP3     1830     TP3      O        OW      -0.834000       16.0000           0
     17420 TIP3     1830     TP3      H1       HW       0.417000       1.00800           0
     17421 TIP3     1830     TP3      H2       HW       0.417000       1.00800           0
     17422 TIP3     1831     TP3      O        OW      -0.834000       16.0000           0
     17423 TIP3     1831     TP3      H1       HW       0.417000       1.00800           0
     17424 TIP3     1831     TP3      H2       HW       0.417000       1.00800           0
     17425 TIP3     1832     TP3      O        OW      -0.834000       16.0000           0
     17426 TIP3     1832     TP3      H1       HW       0.417000       1.00800           0
     17427 TIP3     1832     TP3      H2       HW       0.417000       1.00800           0
     17428 TIP3     1833     TP3      O        OW      -0.834000       16.0000           0
     17429 TIP3     1833     TP3      H1       HW       0.417000       1.00800           0
     17430 TIP3     1833     TP3      H2       HW       0.417000       1.00800           0
     17431 TIP3     1834     TP3      O        OW      -0.834000       16.0000           0
     17432 TIP3     1834     TP3      H1       HW       0.417000       1.00800           0
     17433 TIP3     1834     TP3      H2       HW       0.417000       1.00800           0
     17434 TIP3     1835     TP3      O        OW      -0.834000       16.0000           0
     17435 TIP3     1835     TP3      H1       HW       0.417000       1.00800           0
     17436 TIP3     1835     TP3      H2       HW       0.417000       1.00800           0
     17437 TIP3     1836     TP3      O        OW      -0.834000       16.0000           0
     17438 TIP3     1836     TP3      H1       HW       0.417000       1.00800           0
     17439 TIP3     1836     TP3      H2       HW       0.417000       1.00800           0
     17440 TIP3     1837     TP3      O        OW      -0.834000       16.0000           0
     17441 TIP3     1837     TP3      H1       HW       0.417000       1.00800           0
     17442 TIP3     1837     TP3      H2       HW       0.417000       1.00800           0
     17443 TIP3     1838     TP3      O        OW      -0.834000       16.0000           0
     17444 TIP3     1838     TP3      H1       HW       0.417000       1.00800           0
     17445 TIP3     1838     TP3      H2       HW       0.417000       1.00800           0
     17446 TIP3     1839     TP3      O        OW      -0.834000       16.0000           0
     17447 TIP3     1839     TP3      H1       HW       0.417000       1.00800           0
     17448 TIP3     1839     TP3      H2       HW       0.417000       1.00800           0
     17449 TIP3     1840     TP3      O        OW      -0.834000       16.0000           0
     17450 TIP3     1840     TP3      H1       HW       0.417000       1.00800           0
     17451 TIP3     1840     TP3      H2       HW       0.417000       1.00800           0
     17452 TIP3     1841     TP3      O        OW      -0.834000       16.0000           0
     17453 TIP3     1841     TP3      H1       HW       0.417000       1.00800           0
     17454 TIP3     1841     TP3      H2       HW       0.417000       1.00800           0
     17455 TIP3     1842     TP3      O        OW      -0.834000       16.0000           0
     17456 TIP3     1842     TP3      H1       HW       0.417000       1.00800           0
     17457 TIP3     1842     TP3      H2       HW       0.417000       1.00800           0
     17458 TIP3     1843     TP3      O        OW      -0.834000       16.0000           0
     17459 TIP3     1843     TP3      H1       HW       0.417000       1.00800           0
     17460 TIP3     1843     TP3      H2       HW       0.417000       1.00800           0
     17461 TIP3     1844     TP3      O        OW      -0.834000       16.0000           0
     17462 TIP3     1844     TP3      H1       HW       0.417000       1.00800           0
     17463 TIP3     1844     TP3      H2       HW       0.417000       1.00800           0
     17464 TIP3     1845     TP3      O        OW      -0.834000       16.0000           0
     17465 TIP3     1845     TP3      H1       HW       0.417000       1.00800           0
     17466 TIP3     1845     TP3      H2       HW       0.417000       1.00800           0
     17467 TIP3     1846     TP3      O        OW      -0.834000       16.0000           0
     17468 TIP3     1846     TP3      H1       HW       0.417000       1.00800           0
     17469 TIP3     1846     TP3      H2       HW       0.417000       1.00800           0
     17470 TIP3     1847     TP3      O        OW      -0.834000       16.0000           0
     17471 TIP3     1847     TP3      H1       HW       0.417000       1.00800           0
     17472 TIP3     1847     TP3      H2       HW       0.417000       1.00800           0
     17473 TIP3     1848     TP3      O        OW      -0.834000       16.0000           0
     17474 TIP3     1848     TP3      H1       HW       0.417000       1.00800           0
     17475 TIP3     1848     TP3      H2       HW       0.417000       1.00800           0
     17476 TIP3     1849     TP3      O        OW      -0.834000       16.0000           0
     17477 TIP3     1849     TP3      H1       HW       0.417000       1.00800           0
     17478 TIP3     1849     TP3      H2       HW       0.417000       1.00800           0
     17479 TIP3     1850     TP3      O        OW      -0.834000       16.0000           0
     17480 TIP3     1850     TP3      H1       HW       0.417000       1.00800           0
     17481 TIP3     1850     TP3      H2       HW       0.417000       1.00800           0
     17482 TIP3     1851     TP3      O        OW      -0.834000       16.0000           0
     17483 TIP3     1851     TP3      H1       HW       0.417000       1.00800           0
     17484 TIP3     1851     TP3      H2       HW       0.417000       1.00800           0
     17485 TIP3     1852     TP3      O        OW      -0.834000       16.0000           0
     17486 TIP3     1852     TP3      H1       HW       0.417000       1.00800           0
     17487 TIP3     1852     TP3      H2       HW       0.417000       1.00800           0
     17488 TIP3     1853     TP3      O        OW      -0.834000       16.0000           0
     17489 TIP3     1853     TP3      H1       HW       0.417000       1.00800           0
     17490 TIP3     1853     TP3      H2       HW       0.417000       1.00800           0
     17491 TIP3     1854     TP3      O        OW      -0.834000       16.0000           0
     17492 TIP3     1854     TP3      H1       HW       0.417000       1.00800           0
     17493 TIP3     1854     TP3      H2       HW       0.417000       1.00800           0
     17494 TIP3     1855     TP3      O        OW      -0.834000       16.0000           0
     17495 TIP3     1855     TP3      H1       HW       0.417000       1.00800           0
     17496 TIP3     1855     TP3      H2       HW       0.417000       1.00800           0
     17497 TIP3     1856     TP3      O        OW      -0.834000       16.0000           0
     17498 TIP3     1856     TP3      H1       HW       0.417000       1.00800           0
     17499 TIP3     1856     TP3      H2       HW       0.417000       1.00800           0
     17500 TIP3     1857     TP3      O        OW      -0.834000       16.0000           0
     17501 TIP3     1857     TP3      H1       HW       0.417000       1.00800           0
     17502 TIP3     1857     TP3      H2       HW       0.417000       1.00800           0
     17503 TIP3     1858     TP3      O        OW      -0.834000       16.0000           0
     17504 TIP3     1858     TP3      H1       HW       0.417000       1.00800           0
     17505 TIP3     1858     TP3      H2       HW       0.417000       1.00800           0
     17506 TIP3     1859     TP3      O        OW      -0.834000       16.0000           0
     17507 TIP3     1859     TP3      H1       HW       0.417000       1.00800           0
     17508 TIP3     1859     TP3      H2       HW       0.417000       1.00800           0
     17509 TIP3     1860     TP3      O        OW      -0.834000       16.0000           0
     17510 TIP3     1860     TP3      H1       HW       0.417000       1.00800           0
     17511 TIP3     1860     TP3      H2       HW       0.417000       1.00800           0
     17512 TIP3     1861     TP3      O        OW      -0.834000       16.0000           0
     17513 TIP3     1861     TP3      H1       HW       0.417000       1.00800           0
     17514 TIP3     1861     TP3      H2       HW       0.417000       1.00800           0
     17515 TIP3     1862     TP3      O        OW      -0.834000       16.0000           0
     17516 TIP3     1862     TP3      H1       HW       0.417000       1.00800           0
     17517 TIP3     1862     TP3      H2       HW       0.417000       1.00800           0
     17518 TIP3     1863     TP3      O        OW      -0.834000       16.0000           0
     17519 TIP3     1863     TP3      H1       HW       0.417000       1.00800           0
     17520 TIP3     1863     TP3      H2       HW       0.417000       1.00800           0
     17521 TIP3     1864     TP3      O        OW      -0.834000       16.0000           0
     17522 TIP3     1864     TP3      H1       HW       0.417000       1.00800           0
     17523 TIP3     1864     TP3      H2       HW       0.417000       1.00800           0
     17524 TIP3     1865     TP3      O        OW      -0.834000       16.0000           0
     17525 TIP3     1865     TP3      H1       HW       0.417000       1.00800           0
     17526 TIP3     1865     TP3      H2       HW       0.417000       1.00800           0
     17527 TIP3     1866     TP3      O        OW      -0.834000       16.0000           0
     17528 TIP3     1866     TP3      H1       HW       0.417000       1.00800           0
     17529 TIP3     1866     TP3      H2       HW       0.417000       1.00800           0
     17530 TIP3     1867     TP3      O        OW      -0.834000       16.0000           0
     17531 TIP3     1867     TP3      H1       HW       0.417000       1.00800           0
     17532 TIP3     1867     TP3      H2       HW       0.417000       1.00800           0
     17533 TIP3     1868     TP3      O        OW      -0.834000       16.0000           0
     17534 TIP3     1868     TP3      H1       HW       0.417000       1.00800           0
     17535 TIP3     1868     TP3      H2       HW       0.417000       1.00800           0
     17536 TIP3     1869     TP3      O        OW      -0.834000       16.0000           0
     17537 TIP3     1869     TP3      H1       HW       0.417000       1.00800           0
     17538 TIP3     1869     TP3      H2       HW       0.417000       1.00800           0
     17539 TIP3     1870     TP3      O        OW      -0.834000       16.0000           0
     17540 TIP3     1870     TP3      H1       HW       0.417000       1.00800           0
     17541 TIP3     1870     TP3      H2       HW       0.417000       1.00800           0
     17542 TIP3     1871     TP3      O        OW      -0.834000       16.0000           0
     17543 TIP3     1871     TP3      H1       HW       0.417000       1.00800           0
     17544 TIP3     1871     TP3      H2       HW       0.417000       1.00800           0
     17545 TIP3     1872     TP3      O        OW      -0.834000       16.0000           0
     17546 TIP3     1872     TP3      H1       HW       0.417000       1.00800           0
     17547 TIP3     1872     TP3      H2       HW       0.417000       1.00800           0
     17548 TIP3     1873     TP3      O        OW      -0.834000       16.0000           0
     17549 TIP3     1873     TP3      H1       HW       0.417000       1.00800           0
     17550 TIP3     1873     TP3      H2       HW       0.417000       1.00800           0
     17551 TIP3     1874     TP3      O        OW      -0.834000       16.0000           0
     17552 TIP3     1874     TP3      H1       HW       0.417000       1.00800           0
     17553 TIP3     1874     TP3      H2       HW       0.417000       1.00800           0
     17554 TIP3     1875     TP3      O        OW      -0.834000       16.0000           0
     17555 TIP3     1875     TP3      H1       HW       0.417000       1.00800           0
     17556 TIP3     1875     TP3      H2       HW       0.417000       1.00800           0
     17557 TIP3     1876     TP3      O        OW      -0.834000       16.0000           0
     17558 TIP3     1876     TP3      H1       HW       0.417000       1.00800           0
     17559 TIP3     1876     TP3      H2       HW       0.417000       1.00800           0
     17560 TIP3     1877     TP3      O        OW      -0.834000       16.0000           0
     17561 TIP3     1877     TP3      H1       HW       0.417000       1.00800           0
     17562 TIP3     1877     TP3      H2       HW       0.417000       1.00800           0
     17563 TIP3     1878     TP3      O        OW      -0.834000       16.0000           0
     17564 TIP3     1878     TP3      H1       HW       0.417000       1.00800           0
     17565 TIP3     1878     TP3      H2       HW       0.417000       1.00800           0
     17566 TIP3     1879     TP3      O        OW      -0.834000       16.0000           0
     17567 TIP3     1879     TP3      H1       HW       0.417000       1.00800           0
     17568 TIP3     1879     TP3      H2       HW       0.417000       1.00800           0
     17569 TIP3     1880     TP3      O        OW      -0.834000       16.0000           0
     17570 TIP3     1880     TP3      H1       HW       0.417000       1.00800           0
     17571 TIP3     1880     TP3      H2       HW       0.417000       1.00800           0
     17572 TIP3     1881     TP3      O        OW      -0.834000       16.0000           0
     17573 TIP3     1881     TP3      H1       HW       0.417000       1.00800           0
     17574 TIP3     1881     TP3      H2       HW       0.417000       1.00800           0
     17575 TIP3     1882     TP3      O        OW      -0.834000       16.0000           0
     17576 TIP3     1882     TP3      H1       HW       0.417000       1.00800           0
     17577 TIP3     1882     TP3      H2       HW       0.417000       1.00800           0
     17578 TIP3     1883     TP3      O        OW      -0.834000       16.0000           0
     17579 TIP3     1883     TP3      H1       HW       0.417000       1.00800           0
     17580 TIP3     1883     TP3      H2       HW       0.417000       1.00800           0
     17581 TIP3     1884     TP3      O        OW      -0.834000       16.0000           0
     17582 TIP3     1884     TP3      H1       HW       0.417000       1.00800           0
     17583 TIP3     1884     TP3      H2       HW       0.417000       1.00800           0
     17584 TIP3     1885     TP3      O        OW      -0.834000       16.0000           0
     17585 TIP3     1885     TP3      H1       HW       0.417000       1.00800           0
     17586 TIP3     1885     TP3      H2       HW       0.417000       1.00800           0
     17587 TIP3     1886     TP3      O        OW      -0.834000       16.0000           0
     17588 TIP3     1886     TP3      H1       HW       0.417000       1.00800           0
     17589 TIP3     1886     TP3      H2       HW       0.417000       1.00800           0
     17590 TIP3     1887     TP3      O        OW      -0.834000       16.0000           0
     17591 TIP3     1887     TP3      H1       HW       0.417000       1.00800           0
     17592 TIP3     1887     TP3      H2       HW       0.417000       1.00800           0
     17593 TIP3     1888     TP3      O        OW      -0.834000       16.0000           0
     17594 TIP3     1888     TP3      H1       HW       0.417000       1.00800           0
     17595 TIP3     1888     TP3      H2       HW       0.417000       1.00800           0
     17596 TIP3     1889     TP3      O        OW      -0.834000       16.0000           0
     17597 TIP3     1889     TP3      H1       HW       0.417000       1.00800           0
     17598 TIP3     1889     TP3      H2       HW       0.417000       1.00800           0
     17599 TIP3     1890     TP3      O        OW      -0.834000       16.0000           0
     17600 TIP3     1890     TP3      H1       HW       0.417000       1.00800           0
     17601 TIP3     1890     TP3      H2       HW       0.417000       1.00800           0
     17602 TIP3     1891     TP3      O        OW      -0.834000       16.0000           0
     17603 TIP3     1891     TP3      H1       HW       0.417000       1.00800           0
     17604 TIP3     1891     TP3      H2       HW       0.417000       1.00800           0
     17605 TIP3     1892     TP3      O        OW      -0.834000       16.0000           0
     17606 TIP3     1892     TP3      H1       HW       0.417000       1.00800           0
     17607 TIP3     1892     TP3      H2       HW       0.417000       1.00800           0
     17608 TIP3     1893     TP3      O        OW      -0.834000       16.0000           0
     17609 TIP3     1893     TP3      H1       HW       0.417000       1.00800           0
     17610 TIP3     1893     TP3      H2       HW       0.417000       1.00800           0
     17611 TIP3     1894     TP3      O        OW      -0.834000       16.0000           0
     17612 TIP3     1894     TP3      H1       HW       0.417000       1.00800           0
     17613 TIP3     1894     TP3      H2       HW       0.417000       1.00800           0
     17614 TIP3     1895     TP3      O        OW      -0.834000       16.0000           0
     17615 TIP3     1895     TP3      H1       HW       0.417000       1.00800           0
     17616 TIP3     1895     TP3      H2       HW       0.417000       1.00800           0
     17617 TIP3     1896     TP3      O        OW      -0.834000       16.0000           0
     17618 TIP3     1896     TP3      H1       HW       0.417000       1.00800           0
     17619 TIP3     1896     TP3      H2       HW       0.417000       1.00800           0
     17620 TIP3     1897     TP3      O        OW      -0.834000       16.0000           0
     17621 TIP3     1897     TP3      H1       HW       0.417000       1.00800           0
     17622 TIP3     1897     TP3      H2       HW       0.417000       1.00800           0
     17623 TIP3     1898     TP3      O        OW      -0.834000       16.0000           0
     17624 TIP3     1898     TP3      H1       HW       0.417000       1.00800           0
     17625 TIP3     1898     TP3      H2       HW       0.417000       1.00800           0
     17626 TIP3     1899     TP3      O        OW      -0.834000       16.0000           0
     17627 TIP3     1899     TP3      H1       HW       0.417000       1.00800           0
     17628 TIP3     1899     TP3      H2       HW       0.417000       1.00800           0
     17629 TIP3     1900     TP3      O        OW      -0.834000       16.0000           0
     17630 TIP3     1900     TP3      H1       HW       0.417000       1.00800           0
     17631 TIP3     1900     TP3      H2       HW       0.417000       1.00800           0
     17632 TIP3     1901     TP3      O        OW      -0.834000       16.0000           0
     17633 TIP3     1901     TP3      H1       HW       0.417000       1.00800           0
     17634 TIP3     1901     TP3      H2       HW       0.417000       1.00800           0
     17635 TIP3     1902     TP3      O        OW      -0.834000       16.0000           0
     17636 TIP3     1902     TP3      H1       HW       0.417000       1.00800           0
     17637 TIP3     1902     TP3      H2       HW       0.417000       1.00800           0
     17638 TIP3     1903     TP3      O        OW      -0.834000       16.0000           0
     17639 TIP3     1903     TP3      H1       HW       0.417000       1.00800           0
     17640 TIP3     1903     TP3      H2       HW       0.417000       1.00800           0
     17641 TIP3     1904     TP3      O        OW      -0.834000       16.0000           0
     17642 TIP3     1904     TP3      H1       HW       0.417000       1.00800           0
     17643 TIP3     1904     TP3      H2       HW       0.417000       1.00800           0
     17644 TIP3     1905     TP3      O        OW      -0.834000       16.0000           0
     17645 TIP3     1905     TP3      H1       HW       0.417000       1.00800           0
     17646 TIP3     1905     TP3      H2       HW       0.417000       1.00800           0
     17647 TIP3     1906     TP3      O        OW      -0.834000       16.0000           0
     17648 TIP3     1906     TP3      H1       HW       0.417000       1.00800           0
     17649 TIP3     1906     TP3      H2       HW       0.417000       1.00800           0
     17650 TIP3     1907     TP3      O        OW      -0.834000       16.0000           0
     17651 TIP3     1907     TP3      H1       HW       0.417000       1.00800           0
     17652 TIP3     1907     TP3      H2       HW       0.417000       1.00800           0
     17653 TIP3     1908     TP3      O        OW      -0.834000       16.0000           0
     17654 TIP3     1908     TP3      H1       HW       0.417000       1.00800           0
     17655 TIP3     1908     TP3      H2       HW       0.417000       1.00800           0
     17656 TIP3     1909     TP3      O        OW      -0.834000       16.0000           0
     17657 TIP3     1909     TP3      H1       HW       0.417000       1.00800           0
     17658 TIP3     1909     TP3      H2       HW       0.417000       1.00800           0
     17659 TIP3     1910     TP3      O        OW      -0.834000       16.0000           0
     17660 TIP3     1910     TP3      H1       HW       0.417000       1.00800           0
     17661 TIP3     1910     TP3      H2       HW       0.417000       1.00800           0
     17662 TIP3     1911     TP3      O        OW      -0.834000       16.0000           0
     17663 TIP3     1911     TP3      H1       HW       0.417000       1.00800           0
     17664 TIP3     1911     TP3      H2       HW       0.417000       1.00800           0
     17665 TIP3     1912     TP3      O        OW      -0.834000       16.0000           0
     17666 TIP3     1912     TP3      H1       HW       0.417000       1.00800           0
     17667 TIP3     1912     TP3      H2       HW       0.417000       1.00800           0
     17668 TIP3     1913     TP3      O        OW      -0.834000       16.0000           0
     17669 TIP3     1913     TP3      H1       HW       0.417000       1.00800           0
     17670 TIP3     1913     TP3      H2       HW       0.417000       1.00800           0
     17671 TIP3     1914     TP3      O        OW      -0.834000       16.0000           0
     17672 TIP3     1914     TP3      H1       HW       0.417000       1.00800           0
     17673 TIP3     1914     TP3      H2       HW       0.417000       1.00800           0
     17674 TIP3     1915     TP3      O        OW      -0.834000       16.0000           0
     17675 TIP3     1915     TP3      H1       HW       0.417000       1.00800           0
     17676 TIP3     1915     TP3      H2       HW       0.417000       1.00800           0
     17677 TIP3     1916     TP3      O        OW      -0.834000       16.0000           0
     17678 TIP3     1916     TP3      H1       HW       0.417000       1.00800           0
     17679 TIP3     1916     TP3      H2       HW       0.417000       1.00800           0
     17680 TIP3     1917     TP3      O        OW      -0.834000       16.0000           0
     17681 TIP3     1917     TP3      H1       HW       0.417000       1.00800           0
     17682 TIP3     1917     TP3      H2       HW       0.417000       1.00800           0
     17683 TIP3     1918     TP3      O        OW      -0.834000       16.0000           0
     17684 TIP3     1918     TP3      H1       HW       0.417000       1.00800           0
     17685 TIP3     1918     TP3      H2       HW       0.417000       1.00800           0
     17686 TIP3     1919     TP3      O        OW      -0.834000       16.0000           0
     17687 TIP3     1919     TP3      H1       HW       0.417000       1.00800           0
     17688 TIP3     1919     TP3      H2       HW       0.417000       1.00800           0
     17689 TIP3     1920     TP3      O        OW      -0.834000       16.0000           0
     17690 TIP3     1920     TP3      H1       HW       0.417000       1.00800           0
     17691 TIP3     1920     TP3      H2       HW       0.417000       1.00800           0
     17692 TIP3     1921     TP3      O        OW      -0.834000       16.0000           0
     17693 TIP3     1921     TP3      H1       HW       0.417000       1.00800           0
     17694 TIP3     1921     TP3      H2       HW       0.417000       1.00800           0
     17695 TIP3     1922     TP3      O        OW      -0.834000       16.0000           0
     17696 TIP3     1922     TP3      H1       HW       0.417000       1.00800           0
     17697 TIP3     1922     TP3      H2       HW       0.417000       1.00800           0
     17698 TIP3     1923     TP3      O        OW      -0.834000       16.0000           0
     17699 TIP3     1923     TP3      H1       HW       0.417000       1.00800           0
     17700 TIP3     1923     TP3      H2       HW       0.417000       1.00800           0
     17701 TIP3     1924     TP3      O        OW      -0.834000       16.0000           0
     17702 TIP3     1924     TP3      H1       HW       0.417000       1.00800           0
     17703 TIP3     1924     TP3      H2       HW       0.417000       1.00800           0
     17704 TIP3     1925     TP3      O        OW      -0.834000       16.0000           0
     17705 TIP3     1925     TP3      H1       HW       0.417000       1.00800           0
     17706 TIP3     1925     TP3      H2       HW       0.417000       1.00800           0
     17707 TIP3     1926     TP3      O        OW      -0.834000       16.0000           0
     17708 TIP3     1926     TP3      H1       HW       0.417000       1.00800           0
     17709 TIP3     1926     TP3      H2       HW       0.417000       1.00800           0
     17710 TIP3     1927     TP3      O        OW      -0.834000       16.0000           0
     17711 TIP3     1927     TP3      H1       HW       0.417000       1.00800           0
     17712 TIP3     1927     TP3      H2       HW       0.417000       1.00800           0
     17713 TIP3     1928     TP3      O        OW      -0.834000       16.0000           0
     17714 TIP3     1928     TP3      H1       HW       0.417000       1.00800           0
     17715 TIP3     1928     TP3      H2       HW       0.417000       1.00800           0
     17716 TIP3     1929     TP3      O        OW      -0.834000       16.0000           0
     17717 TIP3     1929     TP3      H1       HW       0.417000       1.00800           0
     17718 TIP3     1929     TP3      H2       HW       0.417000       1.00800           0
     17719 TIP3     1930     TP3      O        OW      -0.834000       16.0000           0
     17720 TIP3     1930     TP3      H1       HW       0.417000       1.00800           0
     17721 TIP3     1930     TP3      H2       HW       0.417000       1.00800           0
     17722 TIP3     1931     TP3      O        OW      -0.834000       16.0000           0
     17723 TIP3     1931     TP3      H1       HW       0.417000       1.00800           0
     17724 TIP3     1931     TP3      H2       HW       0.417000       1.00800           0
     17725 TIP3     1932     TP3      O        OW      -0.834000       16.0000           0
     17726 TIP3     1932     TP3      H1       HW       0.417000       1.00800           0
     17727 TIP3     1932     TP3      H2       HW       0.417000       1.00800           0
     17728 TIP3     1933     TP3      O        OW      -0.834000       16.0000           0
     17729 TIP3     1933     TP3      H1       HW       0.417000       1.00800           0
     17730 TIP3     1933     TP3      H2       HW       0.417000       1.00800           0
     17731 TIP3     1934     TP3      O        OW      -0.834000       16.0000           0
     17732 TIP3     1934     TP3      H1       HW       0.417000       1.00800           0
     17733 TIP3     1934     TP3      H2       HW       0.417000       1.00800           0
     17734 TIP3     1935     TP3      O        OW      -0.834000       16.0000           0
     17735 TIP3     1935     TP3      H1       HW       0.417000       1.00800           0
     17736 TIP3     1935     TP3      H2       HW       0.417000       1.00800           0
     17737 TIP3     1936     TP3      O        OW      -0.834000       16.0000           0
     17738 TIP3     1936     TP3      H1       HW       0.417000       1.00800           0
     17739 TIP3     1936     TP3      H2       HW       0.417000       1.00800           0
     17740 TIP3     1937     TP3      O        OW      -0.834000       16.0000           0
     17741 TIP3     1937     TP3      H1       HW       0.417000       1.00800           0
     17742 TIP3     1937     TP3      H2       HW       0.417000       1.00800           0
     17743 TIP3     1938     TP3      O        OW      -0.834000       16.0000           0
     17744 TIP3     1938     TP3      H1       HW       0.417000       1.00800           0
     17745 TIP3     1938     TP3      H2       HW       0.417000       1.00800           0
     17746 TIP3     1939     TP3      O        OW      -0.834000       16.0000           0
     17747 TIP3     1939     TP3      H1       HW       0.417000       1.00800           0
     17748 TIP3     1939     TP3      H2       HW       0.417000       1.00800           0
     17749 TIP3     1940     TP3      O        OW      -0.834000       16.0000           0
     17750 TIP3     1940     TP3      H1       HW       0.417000       1.00800           0
     17751 TIP3     1940     TP3      H2       HW       0.417000       1.00800           0
     17752 TIP3     1941     TP3      O        OW      -0.834000       16.0000           0
     17753 TIP3     1941     TP3      H1       HW       0.417000       1.00800           0
     17754 TIP3     1941     TP3      H2       HW       0.417000       1.00800           0
     17755 TIP3     1942     TP3      O        OW      -0.834000       16.0000           0
     17756 TIP3     1942     TP3      H1       HW       0.417000       1.00800           0
     17757 TIP3     1942     TP3      H2       HW       0.417000       1.00800           0
     17758 TIP3     1943     TP3      O        OW      -0.834000       16.0000           0
     17759 TIP3     1943     TP3      H1       HW       0.417000       1.00800           0
     17760 TIP3     1943     TP3      H2       HW       0.417000       1.00800           0
     17761 TIP3     1944     TP3      O        OW      -0.834000       16.0000           0
     17762 TIP3     1944     TP3      H1       HW       0.417000       1.00800           0
     17763 TIP3     1944     TP3      H2       HW       0.417000       1.00800           0
     17764 TIP3     1945     TP3      O        OW      -0.834000       16.0000           0
     17765 TIP3     1945     TP3      H1       HW       0.417000       1.00800           0
     17766 TIP3     1945     TP3      H2       HW       0.417000       1.00800           0
     17767 TIP3     1946     TP3      O        OW      -0.834000       16.0000           0
     17768 TIP3     1946     TP3      H1       HW       0.417000       1.00800           0
     17769 TIP3     1946     TP3      H2       HW       0.417000       1.00800           0
     17770 TIP3     1947     TP3      O        OW      -0.834000       16.0000           0
     17771 TIP3     1947     TP3      H1       HW       0.417000       1.00800           0
     17772 TIP3     1947     TP3      H2       HW       0.417000       1.00800           0
     17773 TIP3     1948     TP3      O        OW      -0.834000       16.0000           0
     17774 TIP3     1948     TP3      H1       HW       0.417000       1.00800           0
     17775 TIP3     1948     TP3      H2       HW       0.417000       1.00800           0
     17776 TIP3     1949     TP3      O        OW      -0.834000       16.0000           0
     17777 TIP3     1949     TP3      H1       HW       0.417000       1.00800           0
     17778 TIP3     1949     TP3      H2       HW       0.417000       1.00800           0
     17779 TIP3     1950     TP3      O        OW      -0.834000       16.0000           0
     17780 TIP3     1950     TP3      H1       HW       0.417000       1.00800           0
     17781 TIP3     1950     TP3      H2       HW       0.417000       1.00800           0
     17782 TIP3     1951     TP3      O        OW      -0.834000       16.0000           0
     17783 TIP3     1951     TP3      H1       HW       0.417000       1.00800           0
     17784 TIP3     1951     TP3      H2       HW       0.417000       1.00800           0
     17785 TIP3     1952     TP3      O        OW      -0.834000       16.0000           0
     17786 TIP3     1952     TP3      H1       HW       0.417000       1.00800           0
     17787 TIP3     1952     TP3      H2       HW       0.417000       1.00800           0
     17788 TIP3     1953     TP3      O        OW      -0.834000       16.0000           0
     17789 TIP3     1953     TP3      H1       HW       0.417000       1.00800           0
     17790 TIP3     1953     TP3      H2       HW       0.417000       1.00800           0
     17791 TIP3     1954     TP3      O        OW      -0.834000       16.0000           0
     17792 TIP3     1954     TP3      H1       HW       0.417000       1.00800           0
     17793 TIP3     1954     TP3      H2       HW       0.417000       1.00800           0
     17794 TIP3     1955     TP3      O        OW      -0.834000       16.0000           0
     17795 TIP3     1955     TP3      H1       HW       0.417000       1.00800           0
     17796 TIP3     1955     TP3      H2       HW       0.417000       1.00800           0
     17797 TIP3     1956     TP3      O        OW      -0.834000       16.0000           0
     17798 TIP3     1956     TP3      H1       HW       0.417000       1.00800           0
     17799 TIP3     1956     TP3      H2       HW       0.417000       1.00800           0
     17800 TIP3     1957     TP3      O        OW      -0.834000       16.0000           0
     17801 TIP3     1957     TP3      H1       HW       0.417000       1.00800           0
     17802 TIP3     1957     TP3      H2       HW       0.417000       1.00800           0
     17803 TIP3     1958     TP3      O        OW      -0.834000       16.0000           0
     17804 TIP3     1958     TP3      H1       HW       0.417000       1.00800           0
     17805 TIP3     1958     TP3      H2       HW       0.417000       1.00800           0
     17806 TIP3     1959     TP3      O        OW      -0.834000       16.0000           0
     17807 TIP3     1959     TP3      H1       HW       0.417000       1.00800           0
     17808 TIP3     1959     TP3      H2       HW       0.417000       1.00800           0
     17809 TIP3     1960     TP3      O        OW      -0.834000       16.0000           0
     17810 TIP3     1960     TP3      H1       HW       0.417000       1.00800           0
     17811 TIP3     1960     TP3      H2       HW       0.417000       1.00800           0
     17812 TIP3     1961     TP3      O        OW      -0.834000       16.0000           0
     17813 TIP3     1961     TP3      H1       HW       0.417000       1.00800           0
     17814 TIP3     1961     TP3      H2       HW       0.417000       1.00800           0
     17815 TIP3     1962     TP3      O        OW      -0.834000       16.0000           0
     17816 TIP3     1962     TP3      H1       HW       0.417000       1.00800           0
     17817 TIP3     1962     TP3      H2       HW       0.417000       1.00800           0
     17818 TIP3     1963     TP3      O        OW      -0.834000       16.0000           0
     17819 TIP3     1963     TP3      H1       HW       0.417000       1.00800           0
     17820 TIP3     1963     TP3      H2       HW       0.417000       1.00800           0
     17821 TIP3     1964     TP3      O        OW      -0.834000       16.0000           0
     17822 TIP3     1964     TP3      H1       HW       0.417000       1.00800           0
     17823 TIP3     1964     TP3      H2       HW       0.417000       1.00800           0
     17824 TIP3     1965     TP3      O        OW      -0.834000       16.0000           0
     17825 TIP3     1965     TP3      H1       HW       0.417000       1.00800           0
     17826 TIP3     1965     TP3      H2       HW       0.417000       1.00800           0
     17827 TIP3     1966     TP3      O        OW      -0.834000       16.0000           0
     17828 TIP3     1966     TP3      H1       HW       0.417000       1.00800           0
     17829 TIP3     1966     TP3      H2       HW       0.417000       1.00800           0
     17830 TIP3     1967     TP3      O        OW      -0.834000       16.0000           0
     17831 TIP3     1967     TP3      H1       HW       0.417000       1.00800           0
     17832 TIP3     1967     TP3      H2       HW       0.417000       1.00800           0
     17833 TIP3     1968     TP3      O        OW      -0.834000       16.0000           0
     17834 TIP3     1968     TP3      H1       HW       0.417000       1.00800           0
     17835 TIP3     1968     TP3      H2       HW       0.417000       1.00800           0
     17836 TIP3     1969     TP3      O        OW      -0.834000       16.0000           0
     17837 TIP3     1969     TP3      H1       HW       0.417000       1.00800           0
     17838 TIP3     1969     TP3      H2       HW       0.417000       1.00800           0
     17839 TIP3     1970     TP3      O        OW      -0.834000       16.0000           0
     17840 TIP3     1970     TP3      H1       HW       0.417000       1.00800           0
     17841 TIP3     1970     TP3      H2       HW       0.417000       1.00800           0
     17842 TIP3     1971     TP3      O        OW      -0.834000       16.0000           0
     17843 TIP3     1971     TP3      H1       HW       0.417000       1.00800           0
     17844 TIP3     1971     TP3      H2       HW       0.417000       1.00800           0
     17845 TIP3     1972     TP3      O        OW      -0.834000       16.0000           0
     17846 TIP3     1972     TP3      H1       HW       0.417000       1.00800           0
     17847 TIP3     1972     TP3      H2       HW       0.417000       1.00800           0
     17848 TIP3     1973     TP3      O        OW      -0.834000       16.0000           0
     17849 TIP3     1973     TP3      H1       HW       0.417000       1.00800           0
     17850 TIP3     1973     TP3      H2       HW       0.417000       1.00800           0
     17851 TIP3     1974     TP3      O        OW      -0.834000       16.0000           0
     17852 TIP3     1974     TP3      H1       HW       0.417000       1.00800           0
     17853 TIP3     1974     TP3      H2       HW       0.417000       1.00800           0
     17854 TIP3     1975     TP3      O        OW      -0.834000       16.0000           0
     17855 TIP3     1975     TP3      H1       HW       0.417000       1.00800           0
     17856 TIP3     1975     TP3      H2       HW       0.417000       1.00800           0
     17857 TIP3     1976     TP3      O        OW      -0.834000       16.0000           0
     17858 TIP3     1976     TP3      H1       HW       0.417000       1.00800           0
     17859 TIP3     1976     TP3      H2       HW       0.417000       1.00800           0
     17860 TIP3     1977     TP3      O        OW      -0.834000       16.0000           0
     17861 TIP3     1977     TP3      H1       HW       0.417000       1.00800           0
     17862 TIP3     1977     TP3      H2       HW       0.417000       1.00800           0
     17863 TIP3     1978     TP3      O        OW      -0.834000       16.0000           0
     17864 TIP3     1978     TP3      H1       HW       0.417000       1.00800           0
     17865 TIP3     1978     TP3      H2       HW       0.417000       1.00800           0
     17866 TIP3     1979     TP3      O        OW      -0.834000       16.0000           0
     17867 TIP3     1979     TP3      H1       HW       0.417000       1.00800           0
     17868 TIP3     1979     TP3      H2       HW       0.417000       1.00800           0
     17869 TIP3     1980     TP3      O        OW      -0.834000       16.0000           0
     17870 TIP3     1980     TP3      H1       HW       0.417000       1.00800           0
     17871 TIP3     1980     TP3      H2       HW       0.417000       1.00800           0
     17872 TIP3     1981     TP3      O        OW      -0.834000       16.0000           0
     17873 TIP3     1981     TP3      H1       HW       0.417000       1.00800           0
     17874 TIP3     1981     TP3      H2       HW       0.417000       1.00800           0
     17875 TIP3     1982     TP3      O        OW      -0.834000       16.0000           0
     17876 TIP3     1982     TP3      H1       HW       0.417000       1.00800           0
     17877 TIP3     1982     TP3      H2       HW       0.417000       1.00800           0
     17878 TIP3     1983     TP3      O        OW      -0.834000       16.0000           0
     17879 TIP3     1983     TP3      H1       HW       0.417000       1.00800           0
     17880 TIP3     1983     TP3      H2       HW       0.417000       1.00800           0
     17881 TIP3     1984     TP3      O        OW      -0.834000       16.0000           0
     17882 TIP3     1984     TP3      H1       HW       0.417000       1.00800           0
     17883 TIP3     1984     TP3      H2       HW       0.417000       1.00800           0
     17884 TIP3     1985     TP3      O        OW      -0.834000       16.0000           0
     17885 TIP3     1985     TP3      H1       HW       0.417000       1.00800           0
     17886 TIP3     1985     TP3      H2       HW       0.417000       1.00800           0
     17887 TIP3     1986     TP3      O        OW      -0.834000       16.0000           0
     17888 TIP3     1986     TP3      H1       HW       0.417000       1.00800           0
     17889 TIP3     1986     TP3      H2       HW       0.417000       1.00800           0
     17890 TIP3     1987     TP3      O        OW      -0.834000       16.0000           0
     17891 TIP3     1987     TP3      H1       HW       0.417000       1.00800           0
     17892 TIP3     1987     TP3      H2       HW       0.417000       1.00800           0
     17893 TIP3     1988     TP3      O        OW      -0.834000       16.0000           0
     17894 TIP3     1988     TP3      H1       HW       0.417000       1.00800           0
     17895 TIP3     1988     TP3      H2       HW       0.417000       1.00800           0
     17896 TIP3     1989     TP3      O        OW      -0.834000       16.0000           0
     17897 TIP3     1989     TP3      H1       HW       0.417000       1.00800           0
     17898 TIP3     1989     TP3      H2       HW       0.417000       1.00800           0
     17899 TIP3     1990     TP3      O        OW      -0.834000       16.0000           0
     17900 TIP3     1990     TP3      H1       HW       0.417000       1.00800           0
     17901 TIP3     1990     TP3      H2       HW       0.417000       1.00800           0
     17902 TIP3     1991     TP3      O        OW      -0.834000       16.0000           0
     17903 TIP3     1991     TP3      H1       HW       0.417000       1.00800           0
     17904 TIP3     1991     TP3      H2       HW       0.417000       1.00800           0
     17905 TIP3     1992     TP3      O        OW      -0.834000       16.0000           0
     17906 TIP3     1992     TP3      H1       HW       0.417000       1.00800           0
     17907 TIP3     1992     TP3      H2       HW       0.417000       1.00800           0
     17908 TIP3     1993     TP3      O        OW      -0.834000       16.0000           0
     17909 TIP3     1993     TP3      H1       HW       0.417000       1.00800           0
     17910 TIP3     1993     TP3      H2       HW       0.417000       1.00800           0
     17911 TIP3     1994     TP3      O        OW      -0.834000       16.0000           0
     17912 TIP3     1994     TP3      H1       HW       0.417000       1.00800           0
     17913 TIP3     1994     TP3      H2       HW       0.417000       1.00800           0
     17914 TIP3     1995     TP3      O        OW      -0.834000       16.0000           0
     17915 TIP3     1995     TP3      H1       HW       0.417000       1.00800           0
     17916 TIP3     1995     TP3      H2       HW       0.417000       1.00800           0
     17917 TIP3     1996     TP3      O        OW      -0.834000       16.0000           0
     17918 TIP3     1996     TP3      H1       HW       0.417000       1.00800           0
     17919 TIP3     1996     TP3      H2       HW       0.417000       1.00800           0
     17920 TIP3     1997     TP3      O        OW      -0.834000       16.0000           0
     17921 TIP3     1997     TP3      H1       HW       0.417000       1.00800           0
     17922 TIP3     1997     TP3      H2       HW       0.417000       1.00800           0
     17923 TIP3     1998     TP3      O        OW      -0.834000       16.0000           0
     17924 TIP3     1998     TP3      H1       HW       0.417000       1.00800           0
     17925 TIP3     1998     TP3      H2       HW       0.417000       1.00800           0
     17926 TIP3     1999     TP3      O        OW      -0.834000       16.0000           0
     17927 TIP3     1999     TP3      H1       HW       0.417000       1.00800           0
     17928 TIP3     1999     TP3      H2       HW       0.417000       1.00800           0
     17929 TIP3     2000     TP3      O        OW      -0.834000       16.0000           0
     17930 TIP3     2000     TP3      H1       HW       0.417000       1.00800           0
     17931 TIP3     2000     TP3      H2       HW       0.417000       1.00800           0
     17932 TIP3     2001     TP3      O        OW      -0.834000       16.0000           0
     17933 TIP3     2001     TP3      H1       HW       0.417000       1.00800           0
     17934 TIP3     2001     TP3      H2       HW       0.417000       1.00800           0
     17935 TIP3     2002     TP3      O        OW      -0.834000       16.0000           0
     17936 TIP3     2002     TP3      H1       HW       0.417000       1.00800           0
     17937 TIP3     2002     TP3      H2       HW       0.417000       1.00800           0
     17938 TIP3     2003     TP3      O        OW      -0.834000       16.0000           0
     17939 TIP3     2003     TP3      H1       HW       0.417000       1.00800           0
     17940 TIP3     2003     TP3      H2       HW       0.417000       1.00800           0
     17941 TIP3     2004     TP3      O        OW      -0.834000       16.0000           0
     17942 TIP3     2004     TP3      H1       HW       0.417000       1.00800           0
     17943 TIP3     2004     TP3      H2       HW       0.417000       1.00800           0
     17944 TIP3     2005     TP3      O        OW      -0.834000       16.0000           0
     17945 TIP3     2005     TP3      H1       HW       0.417000       1.00800           0
     17946 TIP3     2005     TP3      H2       HW       0.417000       1.00800           0
     17947 TIP3     2006     TP3      O        OW      -0.834000       16.0000           0
     17948 TIP3     2006     TP3      H1       HW       0.417000       1.00800           0
     17949 TIP3     2006     TP3      H2       HW       0.417000       1.00800           0
     17950 TIP3     2007     TP3      O        OW      -0.834000       16.0000           0
     17951 TIP3     2007     TP3      H1       HW       0.417000       1.00800           0
     17952 TIP3     2007     TP3      H2       HW       0.417000       1.00800           0
     17953 TIP3     2008     TP3      O        OW      -0.834000       16.0000           0
     17954 TIP3     2008     TP3      H1       HW       0.417000       1.00800           0
     17955 TIP3     2008     TP3      H2       HW       0.417000       1.00800           0
     17956 TIP3     2009     TP3      O        OW      -0.834000       16.0000           0
     17957 TIP3     2009     TP3      H1       HW       0.417000       1.00800           0
     17958 TIP3     2009     TP3      H2       HW       0.417000       1.00800           0
     17959 TIP3     2010     TP3      O        OW      -0.834000       16.0000           0
     17960 TIP3     2010     TP3      H1       HW       0.417000       1.00800           0
     17961 TIP3     2010     TP3      H2       HW       0.417000       1.00800           0
     17962 TIP3     2011     TP3      O        OW      -0.834000       16.0000           0
     17963 TIP3     2011     TP3      H1       HW       0.417000       1.00800           0
     17964 TIP3     2011     TP3      H2       HW       0.417000       1.00800           0
     17965 TIP3     2012     TP3      O        OW      -0.834000       16.0000           0
     17966 TIP3     2012     TP3      H1       HW       0.417000       1.00800           0
     17967 TIP3     2012     TP3      H2       HW       0.417000       1.00800           0
     17968 TIP3     2013     TP3      O        OW      -0.834000       16.0000           0
     17969 TIP3     2013     TP3      H1       HW       0.417000       1.00800           0
     17970 TIP3     2013     TP3      H2       HW       0.417000       1.00800           0
     17971 TIP3     2014     TP3      O        OW      -0.834000       16.0000           0
     17972 TIP3     2014     TP3      H1       HW       0.417000       1.00800           0
     17973 TIP3     2014     TP3      H2       HW       0.417000       1.00800           0
     17974 TIP3     2015     TP3      O        OW      -0.834000       16.0000           0
     17975 TIP3     2015     TP3      H1       HW       0.417000       1.00800           0
     17976 TIP3     2015     TP3      H2       HW       0.417000       1.00800           0
     17977 TIP3     2016     TP3      O        OW      -0.834000       16.0000           0
     17978 TIP3     2016     TP3      H1       HW       0.417000       1.00800           0
     17979 TIP3     2016     TP3      H2       HW       0.417000       1.00800           0
     17980 TIP3     2017     TP3      O        OW      -0.834000       16.0000           0
     17981 TIP3     2017     TP3      H1       HW       0.417000       1.00800           0
     17982 TIP3     2017     TP3      H2       HW       0.417000       1.00800           0
     17983 TIP3     2018     TP3      O        OW      -0.834000       16.0000           0
     17984 TIP3     2018     TP3      H1       HW       0.417000       1.00800           0
     17985 TIP3     2018     TP3      H2       HW       0.417000       1.00800           0
     17986 TIP3     2019     TP3      O        OW      -0.834000       16.0000           0
     17987 TIP3     2019     TP3      H1       HW       0.417000       1.00800           0
     17988 TIP3     2019     TP3      H2       HW       0.417000       1.00800           0
     17989 TIP3     2020     TP3      O        OW      -0.834000       16.0000           0
     17990 TIP3     2020     TP3      H1       HW       0.417000       1.00800           0
     17991 TIP3     2020     TP3      H2       HW       0.417000       1.00800           0
     17992 TIP3     2021     TP3      O        OW      -0.834000       16.0000           0
     17993 TIP3     2021     TP3      H1       HW       0.417000       1.00800           0
     17994 TIP3     2021     TP3      H2       HW       0.417000       1.00800           0
     17995 TIP3     2022     TP3      O        OW      -0.834000       16.0000           0
     17996 TIP3     2022     TP3      H1       HW       0.417000       1.00800           0
     17997 TIP3     2022     TP3      H2       HW       0.417000       1.00800           0
     17998 TIP3     2023     TP3      O        OW      -0.834000       16.0000           0
     17999 TIP3     2023     TP3      H1       HW       0.417000       1.00800           0
     18000 TIP3     2023     TP3      H2       HW       0.417000       1.00800           0
     18001 TIP3     2024     TP3      O        OW      -0.834000       16.0000           0
     18002 TIP3     2024     TP3      H1       HW       0.417000       1.00800           0
     18003 TIP3     2024     TP3      H2       HW       0.417000       1.00800           0
     18004 TIP3     2025     TP3      O        OW      -0.834000       16.0000           0
     18005 TIP3     2025     TP3      H1       HW       0.417000       1.00800           0
     18006 TIP3     2025     TP3      H2       HW       0.417000       1.00800           0
     18007 TIP3     2026     TP3      O        OW      -0.834000       16.0000           0
     18008 TIP3     2026     TP3      H1       HW       0.417000       1.00800           0
     18009 TIP3     2026     TP3      H2       HW       0.417000       1.00800           0
     18010 TIP3     2027     TP3      O        OW      -0.834000       16.0000           0
     18011 TIP3     2027     TP3      H1       HW       0.417000       1.00800           0
     18012 TIP3     2027     TP3      H2       HW       0.417000       1.00800           0
     18013 TIP3     2028     TP3      O        OW      -0.834000       16.0000           0
     18014 TIP3     2028     TP3      H1       HW       0.417000       1.00800           0
     18015 TIP3     2028     TP3      H2       HW       0.417000       1.00800           0
     18016 TIP3     2029     TP3      O        OW      -0.834000       16.0000           0
     18017 TIP3     2029     TP3      H1       HW       0.417000       1.00800           0
     18018 TIP3     2029     TP3      H2       HW       0.417000       1.00800           0
     18019 TIP3     2030     TP3      O        OW      -0.834000       16.0000           0
     18020 TIP3     2030     TP3      H1       HW       0.417000       1.00800           0
     18021 TIP3     2030     TP3      H2       HW       0.417000       1.00800           0
     18022 TIP3     2031     TP3      O        OW      -0.834000       16.0000           0
     18023 TIP3     2031     TP3      H1       HW       0.417000       1.00800           0
     18024 TIP3     2031     TP3      H2       HW       0.417000       1.00800           0
     18025 TIP3     2032     TP3      O        OW      -0.834000       16.0000           0
     18026 TIP3     2032     TP3      H1       HW       0.417000       1.00800           0
     18027 TIP3     2032     TP3      H2       HW       0.417000       1.00800           0
     18028 TIP3     2033     TP3      O        OW      -0.834000       16.0000           0
     18029 TIP3     2033     TP3      H1       HW       0.417000       1.00800           0
     18030 TIP3     2033     TP3      H2       HW       0.417000       1.00800           0
     18031 TIP3     2034     TP3      O        OW      -0.834000       16.0000           0
     18032 TIP3     2034     TP3      H1       HW       0.417000       1.00800           0
     18033 TIP3     2034     TP3      H2       HW       0.417000       1.00800           0
     18034 TIP3     2035     TP3      O        OW      -0.834000       16.0000           0
     18035 TIP3     2035     TP3      H1       HW       0.417000       1.00800           0
     18036 TIP3     2035     TP3      H2       HW       0.417000       1.00800           0
     18037 TIP3     2036     TP3      O        OW      -0.834000       16.0000           0
     18038 TIP3     2036     TP3      H1       HW       0.417000       1.00800           0
     18039 TIP3     2036     TP3      H2       HW       0.417000       1.00800           0
     18040 TIP3     2037     TP3      O        OW      -0.834000       16.0000           0
     18041 TIP3     2037     TP3      H1       HW       0.417000       1.00800           0
     18042 TIP3     2037     TP3      H2       HW       0.417000       1.00800           0
     18043 TIP3     2038     TP3      O        OW      -0.834000       16.0000           0
     18044 TIP3     2038     TP3      H1       HW       0.417000       1.00800           0
     18045 TIP3     2038     TP3      H2       HW       0.417000       1.00800           0
     18046 TIP3     2039     TP3      O        OW      -0.834000       16.0000           0
     18047 TIP3     2039     TP3      H1       HW       0.417000       1.00800           0
     18048 TIP3     2039     TP3      H2       HW       0.417000       1.00800           0
     18049 TIP3     2040     TP3      O        OW      -0.834000       16.0000           0
     18050 TIP3     2040     TP3      H1       HW       0.417000       1.00800           0
     18051 TIP3     2040     TP3      H2       HW       0.417000       1.00800           0
     18052 TIP3     2041     TP3      O        OW      -0.834000       16.0000           0
     18053 TIP3     2041     TP3      H1       HW       0.417000       1.00800           0
     18054 TIP3     2041     TP3      H2       HW       0.417000       1.00800           0
     18055 TIP3     2042     TP3      O        OW      -0.834000       16.0000           0
     18056 TIP3     2042     TP3      H1       HW       0.417000       1.00800           0
     18057 TIP3     2042     TP3      H2       HW       0.417000       1.00800           0
     18058 TIP3     2043     TP3      O        OW      -0.834000       16.0000           0
     18059 TIP3     2043     TP3      H1       HW       0.417000       1.00800           0
     18060 TIP3     2043     TP3      H2       HW       0.417000       1.00800           0
     18061 TIP3     2044     TP3      O        OW      -0.834000       16.0000           0
     18062 TIP3     2044     TP3      H1       HW       0.417000       1.00800           0
     18063 TIP3     2044     TP3      H2       HW       0.417000       1.00800           0
     18064 TIP3     2045     TP3      O        OW      -0.834000       16.0000           0
     18065 TIP3     2045     TP3      H1       HW       0.417000       1.00800           0
     18066 TIP3     2045     TP3      H2       HW       0.417000       1.00800           0
     18067 TIP3     2046     TP3      O        OW      -0.834000       16.0000           0
     18068 TIP3     2046     TP3      H1       HW       0.417000       1.00800           0
     18069 TIP3     2046     TP3      H2       HW       0.417000       1.00800           0
     18070 TIP3     2047     TP3      O        OW      -0.834000       16.0000           0
     18071 TIP3     2047     TP3      H1       HW       0.417000       1.00800           0
     18072 TIP3     2047     TP3      H2       HW       0.417000       1.00800           0
     18073 TIP3     2048     TP3      O        OW      -0.834000       16.0000           0
     18074 TIP3     2048     TP3      H1       HW       0.417000       1.00800           0
     18075 TIP3     2048     TP3      H2       HW       0.417000       1.00800           0
     18076 TIP3     2049     TP3      O        OW      -0.834000       16.0000           0
     18077 TIP3     2049     TP3      H1       HW       0.417000       1.00800           0
     18078 TIP3     2049     TP3      H2       HW       0.417000       1.00800           0
     18079 TIP3     2050     TP3      O        OW      -0.834000       16.0000           0
     18080 TIP3     2050     TP3      H1       HW       0.417000       1.00800           0
     18081 TIP3     2050     TP3      H2       HW       0.417000       1.00800           0
     18082 TIP3     2051     TP3      O        OW      -0.834000       16.0000           0
     18083 TIP3     2051     TP3      H1       HW       0.417000       1.00800           0
     18084 TIP3     2051     TP3      H2       HW       0.417000       1.00800           0
     18085 TIP3     2052     TP3      O        OW      -0.834000       16.0000           0
     18086 TIP3     2052     TP3      H1       HW       0.417000       1.00800           0
     18087 TIP3     2052     TP3      H2       HW       0.417000       1.00800           0
     18088 TIP3     2053     TP3      O        OW      -0.834000       16.0000           0
     18089 TIP3     2053     TP3      H1       HW       0.417000       1.00800           0
     18090 TIP3     2053     TP3      H2       HW       0.417000       1.00800           0
     18091 TIP3     2054     TP3      O        OW      -0.834000       16.0000           0
     18092 TIP3     2054     TP3      H1       HW       0.417000       1.00800           0
     18093 TIP3     2054     TP3      H2       HW       0.417000       1.00800           0
     18094 TIP3     2055     TP3      O        OW      -0.834000       16.0000           0
     18095 TIP3     2055     TP3      H1       HW       0.417000       1.00800           0
     18096 TIP3     2055     TP3      H2       HW       0.417000       1.00800           0
     18097 TIP3     2056     TP3      O        OW      -0.834000       16.0000           0
     18098 TIP3     2056     TP3      H1       HW       0.417000       1.00800           0
     18099 TIP3     2056     TP3      H2       HW       0.417000       1.00800           0
     18100 TIP3     2057     TP3      O        OW      -0.834000       16.0000           0
     18101 TIP3     2057     TP3      H1       HW       0.417000       1.00800           0
     18102 TIP3     2057     TP3      H2       HW       0.417000       1.00800           0
     18103 TIP3     2058     TP3      O        OW      -0.834000       16.0000           0
     18104 TIP3     2058     TP3      H1       HW       0.417000       1.00800           0
     18105 TIP3     2058     TP3      H2       HW       0.417000       1.00800           0
     18106 TIP3     2059     TP3      O        OW      -0.834000       16.0000           0
     18107 TIP3     2059     TP3      H1       HW       0.417000       1.00800           0
     18108 TIP3     2059     TP3      H2       HW       0.417000       1.00800           0
     18109 TIP3     2060     TP3      O        OW      -0.834000       16.0000           0
     18110 TIP3     2060     TP3      H1       HW       0.417000       1.00800           0
     18111 TIP3     2060     TP3      H2       HW       0.417000       1.00800           0
     18112 TIP3     2061     TP3      O        OW      -0.834000       16.0000           0
     18113 TIP3     2061     TP3      H1       HW       0.417000       1.00800           0
     18114 TIP3     2061     TP3      H2       HW       0.417000       1.00800           0
     18115 TIP3     2062     TP3      O        OW      -0.834000       16.0000           0
     18116 TIP3     2062     TP3      H1       HW       0.417000       1.00800           0
     18117 TIP3     2062     TP3      H2       HW       0.417000       1.00800           0
     18118 TIP3     2063     TP3      O        OW      -0.834000       16.0000           0
     18119 TIP3     2063     TP3      H1       HW       0.417000       1.00800           0
     18120 TIP3     2063     TP3      H2       HW       0.417000       1.00800           0
     18121 TIP3     2064     TP3      O        OW      -0.834000       16.0000           0
     18122 TIP3     2064     TP3      H1       HW       0.417000       1.00800           0
     18123 TIP3     2064     TP3      H2       HW       0.417000       1.00800           0
     18124 TIP3     2065     TP3      O        OW      -0.834000       16.0000           0
     18125 TIP3     2065     TP3      H1       HW       0.417000       1.00800           0
     18126 TIP3     2065     TP3      H2       HW       0.417000       1.00800           0
     18127 TIP3     2066     TP3      O        OW      -0.834000       16.0000           0
     18128 TIP3     2066     TP3      H1       HW       0.417000       1.00800           0
     18129 TIP3     2066     TP3      H2       HW       0.417000       1.00800           0
     18130 TIP3     2067     TP3      O        OW      -0.834000       16.0000           0
     18131 TIP3     2067     TP3      H1       HW       0.417000       1.00800           0
     18132 TIP3     2067     TP3      H2       HW       0.417000       1.00800           0
     18133 TIP3     2068     TP3      O        OW      -0.834000       16.0000           0
     18134 TIP3     2068     TP3      H1       HW       0.417000       1.00800           0
     18135 TIP3     2068     TP3      H2       HW       0.417000       1.00800           0
     18136 TIP3     2069     TP3      O        OW      -0.834000       16.0000           0
     18137 TIP3     2069     TP3      H1       HW       0.417000       1.00800           0
     18138 TIP3     2069     TP3      H2       HW       0.417000       1.00800           0
     18139 TIP3     2070     TP3      O        OW      -0.834000       16.0000           0
     18140 TIP3     2070     TP3      H1       HW       0.417000       1.00800           0
     18141 TIP3     2070     TP3      H2       HW       0.417000       1.00800           0
     18142 TIP3     2071     TP3      O        OW      -0.834000       16.0000           0
     18143 TIP3     2071     TP3      H1       HW       0.417000       1.00800           0
     18144 TIP3     2071     TP3      H2       HW       0.417000       1.00800           0
     18145 TIP3     2072     TP3      O        OW      -0.834000       16.0000           0
     18146 TIP3     2072     TP3      H1       HW       0.417000       1.00800           0
     18147 TIP3     2072     TP3      H2       HW       0.417000       1.00800           0
     18148 TIP3     2073     TP3      O        OW      -0.834000       16.0000           0
     18149 TIP3     2073     TP3      H1       HW       0.417000       1.00800           0
     18150 TIP3     2073     TP3      H2       HW       0.417000       1.00800           0
     18151 TIP3     2074     TP3      O        OW      -0.834000       16.0000           0
     18152 TIP3     2074     TP3      H1       HW       0.417000       1.00800           0
     18153 TIP3     2074     TP3      H2       HW       0.417000       1.00800           0
     18154 TIP3     2075     TP3      O        OW      -0.834000       16.0000           0
     18155 TIP3     2075     TP3      H1       HW       0.417000       1.00800           0
     18156 TIP3     2075     TP3      H2       HW       0.417000       1.00800           0
     18157 TIP3     2076     TP3      O        OW      -0.834000       16.0000           0
     18158 TIP3     2076     TP3      H1       HW       0.417000       1.00800           0
     18159 TIP3     2076     TP3      H2       HW       0.417000       1.00800           0
     18160 TIP3     2077     TP3      O        OW      -0.834000       16.0000           0
     18161 TIP3     2077     TP3      H1       HW       0.417000       1.00800           0
     18162 TIP3     2077     TP3      H2       HW       0.417000       1.00800           0
     18163 TIP3     2078     TP3      O        OW      -0.834000       16.0000           0
     18164 TIP3     2078     TP3      H1       HW       0.417000       1.00800           0
     18165 TIP3     2078     TP3      H2       HW       0.417000       1.00800           0
     18166 TIP3     2079     TP3      O        OW      -0.834000       16.0000           0
     18167 TIP3     2079     TP3      H1       HW       0.417000       1.00800           0
     18168 TIP3     2079     TP3      H2       HW       0.417000       1.00800           0
     18169 TIP3     2080     TP3      O        OW      -0.834000       16.0000           0
     18170 TIP3     2080     TP3      H1       HW       0.417000       1.00800           0
     18171 TIP3     2080     TP3      H2       HW       0.417000       1.00800           0
     18172 TIP3     2081     TP3      O        OW      -0.834000       16.0000           0
     18173 TIP3     2081     TP3      H1       HW       0.417000       1.00800           0
     18174 TIP3     2081     TP3      H2       HW       0.417000       1.00800           0
     18175 TIP3     2082     TP3      O        OW      -0.834000       16.0000           0
     18176 TIP3     2082     TP3      H1       HW       0.417000       1.00800           0
     18177 TIP3     2082     TP3      H2       HW       0.417000       1.00800           0
     18178 TIP3     2083     TP3      O        OW      -0.834000       16.0000           0
     18179 TIP3     2083     TP3      H1       HW       0.417000       1.00800           0
     18180 TIP3     2083     TP3      H2       HW       0.417000       1.00800           0
     18181 TIP3     2084     TP3      O        OW      -0.834000       16.0000           0
     18182 TIP3     2084     TP3      H1       HW       0.417000       1.00800           0
     18183 TIP3     2084     TP3      H2       HW       0.417000       1.00800           0
     18184 TIP3     2085     TP3      O        OW      -0.834000       16.0000           0
     18185 TIP3     2085     TP3      H1       HW       0.417000       1.00800           0
     18186 TIP3     2085     TP3      H2       HW       0.417000       1.00800           0
     18187 TIP3     2086     TP3      O        OW      -0.834000       16.0000           0
     18188 TIP3     2086     TP3      H1       HW       0.417000       1.00800           0
     18189 TIP3     2086     TP3      H2       HW       0.417000       1.00800           0
     18190 TIP3     2087     TP3      O        OW      -0.834000       16.0000           0
     18191 TIP3     2087     TP3      H1       HW       0.417000       1.00800           0
     18192 TIP3     2087     TP3      H2       HW       0.417000       1.00800           0
     18193 TIP3     2088     TP3      O        OW      -0.834000       16.0000           0
     18194 TIP3     2088     TP3      H1       HW       0.417000       1.00800           0
     18195 TIP3     2088     TP3      H2       HW       0.417000       1.00800           0
     18196 TIP3     2089     TP3      O        OW      -0.834000       16.0000           0
     18197 TIP3     2089     TP3      H1       HW       0.417000       1.00800           0
     18198 TIP3     2089     TP3      H2       HW       0.417000       1.00800           0
     18199 TIP3     2090     TP3      O        OW      -0.834000       16.0000           0
     18200 TIP3     2090     TP3      H1       HW       0.417000       1.00800           0
     18201 TIP3     2090     TP3      H2       HW       0.417000       1.00800           0
     18202 TIP3     2091     TP3      O        OW      -0.834000       16.0000           0
     18203 TIP3     2091     TP3      H1       HW       0.417000       1.00800           0
     18204 TIP3     2091     TP3      H2       HW       0.417000       1.00800           0
     18205 TIP3     2092     TP3      O        OW      -0.834000       16.0000           0
     18206 TIP3     2092     TP3      H1       HW       0.417000       1.00800           0
     18207 TIP3     2092     TP3      H2       HW       0.417000       1.00800           0
     18208 TIP3     2093     TP3      O        OW      -0.834000       16.0000           0
     18209 TIP3     2093     TP3      H1       HW       0.417000       1.00800           0
     18210 TIP3     2093     TP3      H2       HW       0.417000       1.00800           0
     18211 TIP3     2094     TP3      O        OW      -0.834000       16.0000           0
     18212 TIP3     2094     TP3      H1       HW       0.417000       1.00800           0
     18213 TIP3     2094     TP3      H2       HW       0.417000       1.00800           0
     18214 TIP3     2095     TP3      O        OW      -0.834000       16.0000           0
     18215 TIP3     2095     TP3      H1       HW       0.417000       1.00800           0
     18216 TIP3     2095     TP3      H2       HW       0.417000       1.00800           0
     18217 TIP3     2096     TP3      O        OW      -0.834000       16.0000           0
     18218 TIP3     2096     TP3      H1       HW       0.417000       1.00800           0
     18219 TIP3     2096     TP3      H2       HW       0.417000       1.00800           0
     18220 TIP3     2097     TP3      O        OW      -0.834000       16.0000           0
     18221 TIP3     2097     TP3      H1       HW       0.417000       1.00800           0
     18222 TIP3     2097     TP3      H2       HW       0.417000       1.00800           0
     18223 TIP3     2098     TP3      O        OW      -0.834000       16.0000           0
     18224 TIP3     2098     TP3      H1       HW       0.417000       1.00800           0
     18225 TIP3     2098     TP3      H2       HW       0.417000       1.00800           0
     18226 TIP3     2099     TP3      O        OW      -0.834000       16.0000           0
     18227 TIP3     2099     TP3      H1       HW       0.417000       1.00800           0
     18228 TIP3     2099     TP3      H2       HW       0.417000       1.00800           0
     18229 TIP3     2100     TP3      O        OW      -0.834000       16.0000           0
     18230 TIP3     2100     TP3      H1       HW       0.417000       1.00800           0
     18231 TIP3     2100     TP3      H2       HW       0.417000       1.00800           0
     18232 TIP3     2101     TP3      O        OW      -0.834000       16.0000           0
     18233 TIP3     2101     TP3      H1       HW       0.417000       1.00800           0
     18234 TIP3     2101     TP3      H2       HW       0.417000       1.00800           0
     18235 TIP3     2102     TP3      O        OW      -0.834000       16.0000           0
     18236 TIP3     2102     TP3      H1       HW       0.417000       1.00800           0
     18237 TIP3     2102     TP3      H2       HW       0.417000       1.00800           0
     18238 TIP3     2103     TP3      O        OW      -0.834000       16.0000           0
     18239 TIP3     2103     TP3      H1       HW       0.417000       1.00800           0
     18240 TIP3     2103     TP3      H2       HW       0.417000       1.00800           0
     18241 TIP3     2104     TP3      O        OW      -0.834000       16.0000           0
     18242 TIP3     2104     TP3      H1       HW       0.417000       1.00800           0
     18243 TIP3     2104     TP3      H2       HW       0.417000       1.00800           0
     18244 TIP3     2105     TP3      O        OW      -0.834000       16.0000           0
     18245 TIP3     2105     TP3      H1       HW       0.417000       1.00800           0
     18246 TIP3     2105     TP3      H2       HW       0.417000       1.00800           0
     18247 TIP3     2106     TP3      O        OW      -0.834000       16.0000           0
     18248 TIP3     2106     TP3      H1       HW       0.417000       1.00800           0
     18249 TIP3     2106     TP3      H2       HW       0.417000       1.00800           0
     18250 TIP3     2107     TP3      O        OW      -0.834000       16.0000           0
     18251 TIP3     2107     TP3      H1       HW       0.417000       1.00800           0
     18252 TIP3     2107     TP3      H2       HW       0.417000       1.00800           0
     18253 TIP3     2108     TP3      O        OW      -0.834000       16.0000           0
     18254 TIP3     2108     TP3      H1       HW       0.417000       1.00800           0
     18255 TIP3     2108     TP3      H2       HW       0.417000       1.00800           0
     18256 TIP3     2109     TP3      O        OW      -0.834000       16.0000           0
     18257 TIP3     2109     TP3      H1       HW       0.417000       1.00800           0
     18258 TIP3     2109     TP3      H2       HW       0.417000       1.00800           0
     18259 TIP3     2110     TP3      O        OW      -0.834000       16.0000           0
     18260 TIP3     2110     TP3      H1       HW       0.417000       1.00800           0
     18261 TIP3     2110     TP3      H2       HW       0.417000       1.00800           0
     18262 TIP3     2111     TP3      O        OW      -0.834000       16.0000           0
     18263 TIP3     2111     TP3      H1       HW       0.417000       1.00800           0
     18264 TIP3     2111     TP3      H2       HW       0.417000       1.00800           0
     18265 TIP3     2112     TP3      O        OW      -0.834000       16.0000           0
     18266 TIP3     2112     TP3      H1       HW       0.417000       1.00800           0
     18267 TIP3     2112     TP3      H2       HW       0.417000       1.00800           0
     18268 TIP3     2113     TP3      O        OW      -0.834000       16.0000           0
     18269 TIP3     2113     TP3      H1       HW       0.417000       1.00800           0
     18270 TIP3     2113     TP3      H2       HW       0.417000       1.00800           0
     18271 TIP3     2114     TP3      O        OW      -0.834000       16.0000           0
     18272 TIP3     2114     TP3      H1       HW       0.417000       1.00800           0
     18273 TIP3     2114     TP3      H2       HW       0.417000       1.00800           0
     18274 TIP3     2115     TP3      O        OW      -0.834000       16.0000           0
     18275 TIP3     2115     TP3      H1       HW       0.417000       1.00800           0
     18276 TIP3     2115     TP3      H2       HW       0.417000       1.00800           0
     18277 TIP3     2116     TP3      O        OW      -0.834000       16.0000           0
     18278 TIP3     2116     TP3      H1       HW       0.417000       1.00800           0
     18279 TIP3     2116     TP3      H2       HW       0.417000       1.00800           0
     18280 TIP3     2117     TP3      O        OW      -0.834000       16.0000           0
     18281 TIP3     2117     TP3      H1       HW       0.417000       1.00800           0
     18282 TIP3     2117     TP3      H2       HW       0.417000       1.00800           0
     18283 TIP3     2118     TP3      O        OW      -0.834000       16.0000           0
     18284 TIP3     2118     TP3      H1       HW       0.417000       1.00800           0
     18285 TIP3     2118     TP3      H2       HW       0.417000       1.00800           0
     18286 TIP3     2119     TP3      O        OW      -0.834000       16.0000           0
     18287 TIP3     2119     TP3      H1       HW       0.417000       1.00800           0
     18288 TIP3     2119     TP3      H2       HW       0.417000       1.00800           0
     18289 TIP3     2120     TP3      O        OW      -0.834000       16.0000           0
     18290 TIP3     2120     TP3      H1       HW       0.417000       1.00800           0
     18291 TIP3     2120     TP3      H2       HW       0.417000       1.00800           0
     18292 TIP3     2121     TP3      O        OW      -0.834000       16.0000           0
     18293 TIP3     2121     TP3      H1       HW       0.417000       1.00800           0
     18294 TIP3     2121     TP3      H2       HW       0.417000       1.00800           0
     18295 TIP3     2122     TP3      O        OW      -0.834000       16.0000           0
     18296 TIP3     2122     TP3      H1       HW       0.417000       1.00800           0
     18297 TIP3     2122     TP3      H2       HW       0.417000       1.00800           0
     18298 TIP3     2123     TP3      O        OW      -0.834000       16.0000           0
     18299 TIP3     2123     TP3      H1       HW       0.417000       1.00800           0
     18300 TIP3     2123     TP3      H2       HW       0.417000       1.00800           0
     18301 TIP3     2124     TP3      O        OW      -0.834000       16.0000           0
     18302 TIP3     2124     TP3      H1       HW       0.417000       1.00800           0
     18303 TIP3     2124     TP3      H2       HW       0.417000       1.00800           0
     18304 TIP3     2125     TP3      O        OW      -0.834000       16.0000           0
     18305 TIP3     2125     TP3      H1       HW       0.417000       1.00800           0
     18306 TIP3     2125     TP3      H2       HW       0.417000       1.00800           0
     18307 TIP3     2126     TP3      O        OW      -0.834000       16.0000           0
     18308 TIP3     2126     TP3      H1       HW       0.417000       1.00800           0
     18309 TIP3     2126     TP3      H2       HW       0.417000       1.00800           0
     18310 TIP3     2127     TP3      O        OW      -0.834000       16.0000           0
     18311 TIP3     2127     TP3      H1       HW       0.417000       1.00800           0
     18312 TIP3     2127     TP3      H2       HW       0.417000       1.00800           0
     18313 TIP3     2128     TP3      O        OW      -0.834000       16.0000           0
     18314 TIP3     2128     TP3      H1       HW       0.417000       1.00800           0
     18315 TIP3     2128     TP3      H2       HW       0.417000       1.00800           0
     18316 TIP3     2129     TP3      O        OW      -0.834000       16.0000           0
     18317 TIP3     2129     TP3      H1       HW       0.417000       1.00800           0
     18318 TIP3     2129     TP3      H2       HW       0.417000       1.00800           0
     18319 TIP3     2130     TP3      O        OW      -0.834000       16.0000           0
     18320 TIP3     2130     TP3      H1       HW       0.417000       1.00800           0
     18321 TIP3     2130     TP3      H2       HW       0.417000       1.00800           0
     18322 TIP3     2131     TP3      O        OW      -0.834000       16.0000           0
     18323 TIP3     2131     TP3      H1       HW       0.417000       1.00800           0
     18324 TIP3     2131     TP3      H2       HW       0.417000       1.00800           0
     18325 TIP3     2132     TP3      O        OW      -0.834000       16.0000           0
     18326 TIP3     2132     TP3      H1       HW       0.417000       1.00800           0
     18327 TIP3     2132     TP3      H2       HW       0.417000       1.00800           0
     18328 TIP3     2133     TP3      O        OW      -0.834000       16.0000           0
     18329 TIP3     2133     TP3      H1       HW       0.417000       1.00800           0
     18330 TIP3     2133     TP3      H2       HW       0.417000       1.00800           0
     18331 TIP3     2134     TP3      O        OW      -0.834000       16.0000           0
     18332 TIP3     2134     TP3      H1       HW       0.417000       1.00800           0
     18333 TIP3     2134     TP3      H2       HW       0.417000       1.00800           0
     18334 TIP3     2135     TP3      O        OW      -0.834000       16.0000           0
     18335 TIP3     2135     TP3      H1       HW       0.417000       1.00800           0
     18336 TIP3     2135     TP3      H2       HW       0.417000       1.00800           0
     18337 TIP3     2136     TP3      O        OW      -0.834000       16.0000           0
     18338 TIP3     2136     TP3      H1       HW       0.417000       1.00800           0
     18339 TIP3     2136     TP3      H2       HW       0.417000       1.00800           0
     18340 TIP3     2137     TP3      O        OW      -0.834000       16.0000           0
     18341 TIP3     2137     TP3      H1       HW       0.417000       1.00800           0
     18342 TIP3     2137     TP3      H2       HW       0.417000       1.00800           0
     18343 TIP3     2138     TP3      O        OW      -0.834000       16.0000           0
     18344 TIP3     2138     TP3      H1       HW       0.417000       1.00800           0
     18345 TIP3     2138     TP3      H2       HW       0.417000       1.00800           0
     18346 TIP3     2139     TP3      O        OW      -0.834000       16.0000           0
     18347 TIP3     2139     TP3      H1       HW       0.417000       1.00800           0
     18348 TIP3     2139     TP3      H2       HW       0.417000       1.00800           0
     18349 TIP3     2140     TP3      O        OW      -0.834000       16.0000           0
     18350 TIP3     2140     TP3      H1       HW       0.417000       1.00800           0
     18351 TIP3     2140     TP3      H2       HW       0.417000       1.00800           0
     18352 TIP3     2141     TP3      O        OW      -0.834000       16.0000           0
     18353 TIP3     2141     TP3      H1       HW       0.417000       1.00800           0
     18354 TIP3     2141     TP3      H2       HW       0.417000       1.00800           0
     18355 TIP3     2142     TP3      O        OW      -0.834000       16.0000           0
     18356 TIP3     2142     TP3      H1       HW       0.417000       1.00800           0
     18357 TIP3     2142     TP3      H2       HW       0.417000       1.00800           0
     18358 TIP3     2143     TP3      O        OW      -0.834000       16.0000           0
     18359 TIP3     2143     TP3      H1       HW       0.417000       1.00800           0
     18360 TIP3     2143     TP3      H2       HW       0.417000       1.00800           0
     18361 TIP3     2144     TP3      O        OW      -0.834000       16.0000           0
     18362 TIP3     2144     TP3      H1       HW       0.417000       1.00800           0
     18363 TIP3     2144     TP3      H2       HW       0.417000       1.00800           0
     18364 TIP3     2145     TP3      O        OW      -0.834000       16.0000           0
     18365 TIP3     2145     TP3      H1       HW       0.417000       1.00800           0
     18366 TIP3     2145     TP3      H2       HW       0.417000       1.00800           0
     18367 TIP3     2146     TP3      O        OW      -0.834000       16.0000           0
     18368 TIP3     2146     TP3      H1       HW       0.417000       1.00800           0
     18369 TIP3     2146     TP3      H2       HW       0.417000       1.00800           0
     18370 TIP3     2147     TP3      O        OW      -0.834000       16.0000           0
     18371 TIP3     2147     TP3      H1       HW       0.417000       1.00800           0
     18372 TIP3     2147     TP3      H2       HW       0.417000       1.00800           0
     18373 TIP3     2148     TP3      O        OW      -0.834000       16.0000           0
     18374 TIP3     2148     TP3      H1       HW       0.417000       1.00800           0
     18375 TIP3     2148     TP3      H2       HW       0.417000       1.00800           0
     18376 TIP3     2149     TP3      O        OW      -0.834000       16.0000           0
     18377 TIP3     2149     TP3      H1       HW       0.417000       1.00800           0
     18378 TIP3     2149     TP3      H2       HW       0.417000       1.00800           0
     18379 TIP3     2150     TP3      O        OW      -0.834000       16.0000           0
     18380 TIP3     2150     TP3      H1       HW       0.417000       1.00800           0
     18381 TIP3     2150     TP3      H2       HW       0.417000       1.00800           0
     18382 TIP3     2151     TP3      O        OW      -0.834000       16.0000           0
     18383 TIP3     2151     TP3      H1       HW       0.417000       1.00800           0
     18384 TIP3     2151     TP3      H2       HW       0.417000       1.00800           0
     18385 TIP3     2152     TP3      O        OW      -0.834000       16.0000           0
     18386 TIP3     2152     TP3      H1       HW       0.417000       1.00800           0
     18387 TIP3     2152     TP3      H2       HW       0.417000       1.00800           0
     18388 TIP3     2153     TP3      O        OW      -0.834000       16.0000           0
     18389 TIP3     2153     TP3      H1       HW       0.417000       1.00800           0
     18390 TIP3     2153     TP3      H2       HW       0.417000       1.00800           0
     18391 TIP3     2154     TP3      O        OW      -0.834000       16.0000           0
     18392 TIP3     2154     TP3      H1       HW       0.417000       1.00800           0
     18393 TIP3     2154     TP3      H2       HW       0.417000       1.00800           0
     18394 TIP3     2155     TP3      O        OW      -0.834000       16.0000           0
     18395 TIP3     2155     TP3      H1       HW       0.417000       1.00800           0
     18396 TIP3     2155     TP3      H2       HW       0.417000       1.00800           0
     18397 TIP3     2156     TP3      O        OW      -0.834000       16.0000           0
     18398 TIP3     2156     TP3      H1       HW       0.417000       1.00800           0
     18399 TIP3     2156     TP3      H2       HW       0.417000       1.00800           0
     18400 TIP3     2157     TP3      O        OW      -0.834000       16.0000           0
     18401 TIP3     2157     TP3      H1       HW       0.417000       1.00800           0
     18402 TIP3     2157     TP3      H2       HW       0.417000       1.00800           0
     18403 TIP3     2158     TP3      O        OW      -0.834000       16.0000           0
     18404 TIP3     2158     TP3      H1       HW       0.417000       1.00800           0
     18405 TIP3     2158     TP3      H2       HW       0.417000       1.00800           0
     18406 TIP3     2159     TP3      O        OW      -0.834000       16.0000           0
     18407 TIP3     2159     TP3      H1       HW       0.417000       1.00800           0
     18408 TIP3     2159     TP3      H2       HW       0.417000       1.00800           0
     18409 TIP3     2160     TP3      O        OW      -0.834000       16.0000           0
     18410 TIP3     2160     TP3      H1       HW       0.417000       1.00800           0
     18411 TIP3     2160     TP3      H2       HW       0.417000       1.00800           0
     18412 TIP3     2161     TP3      O        OW      -0.834000       16.0000           0
     18413 TIP3     2161     TP3      H1       HW       0.417000       1.00800           0
     18414 TIP3     2161     TP3      H2       HW       0.417000       1.00800           0
     18415 TIP3     2162     TP3      O        OW      -0.834000       16.0000           0
     18416 TIP3     2162     TP3      H1       HW       0.417000       1.00800           0
     18417 TIP3     2162     TP3      H2       HW       0.417000       1.00800           0
     18418 TIP3     2163     TP3      O        OW      -0.834000       16.0000           0
     18419 TIP3     2163     TP3      H1       HW       0.417000       1.00800           0
     18420 TIP3     2163     TP3      H2       HW       0.417000       1.00800           0
     18421 TIP3     2164     TP3      O        OW      -0.834000       16.0000           0
     18422 TIP3     2164     TP3      H1       HW       0.417000       1.00800           0
     18423 TIP3     2164     TP3      H2       HW       0.417000       1.00800           0
     18424 TIP3     2165     TP3      O        OW      -0.834000       16.0000           0
     18425 TIP3     2165     TP3      H1       HW       0.417000       1.00800           0
     18426 TIP3     2165     TP3      H2       HW       0.417000       1.00800           0
     18427 TIP3     2166     TP3      O        OW      -0.834000       16.0000           0
     18428 TIP3     2166     TP3      H1       HW       0.417000       1.00800           0
     18429 TIP3     2166     TP3      H2       HW       0.417000       1.00800           0
     18430 TIP3     2167     TP3      O        OW      -0.834000       16.0000           0
     18431 TIP3     2167     TP3      H1       HW       0.417000       1.00800           0
     18432 TIP3     2167     TP3      H2       HW       0.417000       1.00800           0
     18433 TIP3     2168     TP3      O        OW      -0.834000       16.0000           0
     18434 TIP3     2168     TP3      H1       HW       0.417000       1.00800           0
     18435 TIP3     2168     TP3      H2       HW       0.417000       1.00800           0
     18436 TIP3     2169     TP3      O        OW      -0.834000       16.0000           0
     18437 TIP3     2169     TP3      H1       HW       0.417000       1.00800           0
     18438 TIP3     2169     TP3      H2       HW       0.417000       1.00800           0
     18439 TIP3     2170     TP3      O        OW      -0.834000       16.0000           0
     18440 TIP3     2170     TP3      H1       HW       0.417000       1.00800           0
     18441 TIP3     2170     TP3      H2       HW       0.417000       1.00800           0
     18442 TIP3     2171     TP3      O        OW      -0.834000       16.0000           0
     18443 TIP3     2171     TP3      H1       HW       0.417000       1.00800           0
     18444 TIP3     2171     TP3      H2       HW       0.417000       1.00800           0
     18445 TIP3     2172     TP3      O        OW      -0.834000       16.0000           0
     18446 TIP3     2172     TP3      H1       HW       0.417000       1.00800           0
     18447 TIP3     2172     TP3      H2       HW       0.417000       1.00800           0
     18448 TIP3     2173     TP3      O        OW      -0.834000       16.0000           0
     18449 TIP3     2173     TP3      H1       HW       0.417000       1.00800           0
     18450 TIP3     2173     TP3      H2       HW       0.417000       1.00800           0
     18451 TIP3     2174     TP3      O        OW      -0.834000       16.0000           0
     18452 TIP3     2174     TP3      H1       HW       0.417000       1.00800           0
     18453 TIP3     2174     TP3      H2       HW       0.417000       1.00800           0
     18454 TIP3     2175     TP3      O        OW      -0.834000       16.0000           0
     18455 TIP3     2175     TP3      H1       HW       0.417000       1.00800           0
     18456 TIP3     2175     TP3      H2       HW       0.417000       1.00800           0
     18457 TIP3     2176     TP3      O        OW      -0.834000       16.0000           0
     18458 TIP3     2176     TP3      H1       HW       0.417000       1.00800           0
     18459 TIP3     2176     TP3      H2       HW       0.417000       1.00800           0
     18460 TIP3     2177     TP3      O        OW      -0.834000       16.0000           0
     18461 TIP3     2177     TP3      H1       HW       0.417000       1.00800           0
     18462 TIP3     2177     TP3      H2       HW       0.417000       1.00800           0
     18463 TIP3     2178     TP3      O        OW      -0.834000       16.0000           0
     18464 TIP3     2178     TP3      H1       HW       0.417000       1.00800           0
     18465 TIP3     2178     TP3      H2       HW       0.417000       1.00800           0
     18466 TIP3     2179     TP3      O        OW      -0.834000       16.0000           0
     18467 TIP3     2179     TP3      H1       HW       0.417000       1.00800           0
     18468 TIP3     2179     TP3      H2       HW       0.417000       1.00800           0
     18469 TIP3     2180     TP3      O        OW      -0.834000       16.0000           0
     18470 TIP3     2180     TP3      H1       HW       0.417000       1.00800           0
     18471 TIP3     2180     TP3      H2       HW       0.417000       1.00800           0
     18472 TIP3     2181     TP3      O        OW      -0.834000       16.0000           0
     18473 TIP3     2181     TP3      H1       HW       0.417000       1.00800           0
     18474 TIP3     2181     TP3      H2       HW       0.417000       1.00800           0
     18475 TIP3     2182     TP3      O        OW      -0.834000       16.0000           0
     18476 TIP3     2182     TP3      H1       HW       0.417000       1.00800           0
     18477 TIP3     2182     TP3      H2       HW       0.417000       1.00800           0
     18478 TIP3     2183     TP3      O        OW      -0.834000       16.0000           0
     18479 TIP3     2183     TP3      H1       HW       0.417000       1.00800           0
     18480 TIP3     2183     TP3      H2       HW       0.417000       1.00800           0
     18481 TIP3     2184     TP3      O        OW      -0.834000       16.0000           0
     18482 TIP3     2184     TP3      H1       HW       0.417000       1.00800           0
     18483 TIP3     2184     TP3      H2       HW       0.417000       1.00800           0
     18484 TIP3     2185     TP3      O        OW      -0.834000       16.0000           0
     18485 TIP3     2185     TP3      H1       HW       0.417000       1.00800           0
     18486 TIP3     2185     TP3      H2       HW       0.417000       1.00800           0
     18487 TIP3     2186     TP3      O        OW      -0.834000       16.0000           0
     18488 TIP3     2186     TP3      H1       HW       0.417000       1.00800           0
     18489 TIP3     2186     TP3      H2       HW       0.417000       1.00800           0
     18490 TIP3     2187     TP3      O        OW      -0.834000       16.0000           0
     18491 TIP3     2187     TP3      H1       HW       0.417000       1.00800           0
     18492 TIP3     2187     TP3      H2       HW       0.417000       1.00800           0
     18493 TIP3     2188     TP3      O        OW      -0.834000       16.0000           0
     18494 TIP3     2188     TP3      H1       HW       0.417000       1.00800           0
     18495 TIP3     2188     TP3      H2       HW       0.417000       1.00800           0
     18496 TIP3     2189     TP3      O        OW      -0.834000       16.0000           0
     18497 TIP3     2189     TP3      H1       HW       0.417000       1.00800           0
     18498 TIP3     2189     TP3      H2       HW       0.417000       1.00800           0
     18499 TIP3     2190     TP3      O        OW      -0.834000       16.0000           0
     18500 TIP3     2190     TP3      H1       HW       0.417000       1.00800           0
     18501 TIP3     2190     TP3      H2       HW       0.417000       1.00800           0
     18502 TIP3     2191     TP3      O        OW      -0.834000       16.0000           0
     18503 TIP3     2191     TP3      H1       HW       0.417000       1.00800           0
     18504 TIP3     2191     TP3      H2       HW       0.417000       1.00800           0
     18505 TIP3     2192     TP3      O        OW      -0.834000       16.0000           0
     18506 TIP3     2192     TP3      H1       HW       0.417000       1.00800           0
     18507 TIP3     2192     TP3      H2       HW       0.417000       1.00800           0
     18508 TIP3     2193     TP3      O        OW      -0.834000       16.0000           0
     18509 TIP3     2193     TP3      H1       HW       0.417000       1.00800           0
     18510 TIP3     2193     TP3      H2       HW       0.417000       1.00800           0
     18511 TIP3     2194     TP3      O        OW      -0.834000       16.0000           0
     18512 TIP3     2194     TP3      H1       HW       0.417000       1.00800           0
     18513 TIP3     2194     TP3      H2       HW       0.417000       1.00800           0
     18514 TIP3     2195     TP3      O        OW      -0.834000       16.0000           0
     18515 TIP3     2195     TP3      H1       HW       0.417000       1.00800           0
     18516 TIP3     2195     TP3      H2       HW       0.417000       1.00800           0
     18517 TIP3     2196     TP3      O        OW      -0.834000       16.0000           0
     18518 TIP3     2196     TP3      H1       HW       0.417000       1.00800           0
     18519 TIP3     2196     TP3      H2       HW       0.417000       1.00800           0
     18520 TIP3     2197     TP3      O        OW      -0.834000       16.0000           0
     18521 TIP3     2197     TP3      H1       HW       0.417000       1.00800           0
     18522 TIP3     2197     TP3      H2       HW       0.417000       1.00800           0
     18523 TIP3     2198     TP3      O        OW      -0.834000       16.0000           0
     18524 TIP3     2198     TP3      H1       HW       0.417000       1.00800           0
     18525 TIP3     2198     TP3      H2       HW       0.417000       1.00800           0
     18526 TIP3     2199     TP3      O        OW      -0.834000       16.0000           0
     18527 TIP3     2199     TP3      H1       HW       0.417000       1.00800           0
     18528 TIP3     2199     TP3      H2       HW       0.417000       1.00800           0
     18529 TIP3     2200     TP3      O        OW      -0.834000       16.0000           0
     18530 TIP3     2200     TP3      H1       HW       0.417000       1.00800           0
     18531 TIP3     2200     TP3      H2       HW       0.417000       1.00800           0
     18532 TIP3     2201     TP3      O        OW      -0.834000       16.0000           0
     18533 TIP3     2201     TP3      H1       HW       0.417000       1.00800           0
     18534 TIP3     2201     TP3      H2       HW       0.417000       1.00800           0
     18535 TIP3     2202     TP3      O        OW      -0.834000       16.0000           0
     18536 TIP3     2202     TP3      H1       HW       0.417000       1.00800           0
     18537 TIP3     2202     TP3      H2       HW       0.417000       1.00800           0
     18538 TIP3     2203     TP3      O        OW      -0.834000       16.0000           0
     18539 TIP3     2203     TP3      H1       HW       0.417000       1.00800           0
     18540 TIP3     2203     TP3      H2       HW       0.417000       1.00800           0
     18541 TIP3     2204     TP3      O        OW      -0.834000       16.0000           0
     18542 TIP3     2204     TP3      H1       HW       0.417000       1.00800           0
     18543 TIP3     2204     TP3      H2       HW       0.417000       1.00800           0
     18544 TIP3     2205     TP3      O        OW      -0.834000       16.0000           0
     18545 TIP3     2205     TP3      H1       HW       0.417000       1.00800           0
     18546 TIP3     2205     TP3      H2       HW       0.417000       1.00800           0
     18547 TIP3     2206     TP3      O        OW      -0.834000       16.0000           0
     18548 TIP3     2206     TP3      H1       HW       0.417000       1.00800           0
     18549 TIP3     2206     TP3      H2       HW       0.417000       1.00800           0
     18550 TIP3     2207     TP3      O        OW      -0.834000       16.0000           0
     18551 TIP3     2207     TP3      H1       HW       0.417000       1.00800           0
     18552 TIP3     2207     TP3      H2       HW       0.417000       1.00800           0
     18553 TIP3     2208     TP3      O        OW      -0.834000       16.0000           0
     18554 TIP3     2208     TP3      H1       HW       0.417000       1.00800           0
     18555 TIP3     2208     TP3      H2       HW       0.417000       1.00800           0
     18556 TIP3     2209     TP3      O        OW      -0.834000       16.0000           0
     18557 TIP3     2209     TP3      H1       HW       0.417000       1.00800           0
     18558 TIP3     2209     TP3      H2       HW       0.417000       1.00800           0
     18559 TIP3     2210     TP3      O        OW      -0.834000       16.0000           0
     18560 TIP3     2210     TP3      H1       HW       0.417000       1.00800           0
     18561 TIP3     2210     TP3      H2       HW       0.417000       1.00800           0
     18562 TIP3     2211     TP3      O        OW      -0.834000       16.0000           0
     18563 TIP3     2211     TP3      H1       HW       0.417000       1.00800           0
     18564 TIP3     2211     TP3      H2       HW       0.417000       1.00800           0
     18565 TIP3     2212     TP3      O        OW      -0.834000       16.0000           0
     18566 TIP3     2212     TP3      H1       HW       0.417000       1.00800           0
     18567 TIP3     2212     TP3      H2       HW       0.417000       1.00800           0
     18568 TIP3     2213     TP3      O        OW      -0.834000       16.0000           0
     18569 TIP3     2213     TP3      H1       HW       0.417000       1.00800           0
     18570 TIP3     2213     TP3      H2       HW       0.417000       1.00800           0
     18571 TIP3     2214     TP3      O        OW      -0.834000       16.0000           0
     18572 TIP3     2214     TP3      H1       HW       0.417000       1.00800           0
     18573 TIP3     2214     TP3      H2       HW       0.417000       1.00800           0
     18574 TIP3     2215     TP3      O        OW      -0.834000       16.0000           0
     18575 TIP3     2215     TP3      H1       HW       0.417000       1.00800           0
     18576 TIP3     2215     TP3      H2       HW       0.417000       1.00800           0
     18577 TIP3     2216     TP3      O        OW      -0.834000       16.0000           0
     18578 TIP3     2216     TP3      H1       HW       0.417000       1.00800           0
     18579 TIP3     2216     TP3      H2       HW       0.417000       1.00800           0
     18580 TIP3     2217     TP3      O        OW      -0.834000       16.0000           0
     18581 TIP3     2217     TP3      H1       HW       0.417000       1.00800           0
     18582 TIP3     2217     TP3      H2       HW       0.417000       1.00800           0
     18583 TIP3     2218     TP3      O        OW      -0.834000       16.0000           0
     18584 TIP3     2218     TP3      H1       HW       0.417000       1.00800           0
     18585 TIP3     2218     TP3      H2       HW       0.417000       1.00800           0
     18586 TIP3     2219     TP3      O        OW      -0.834000       16.0000           0
     18587 TIP3     2219     TP3      H1       HW       0.417000       1.00800           0
     18588 TIP3     2219     TP3      H2       HW       0.417000       1.00800           0
     18589 TIP3     2220     TP3      O        OW      -0.834000       16.0000           0
     18590 TIP3     2220     TP3      H1       HW       0.417000       1.00800           0
     18591 TIP3     2220     TP3      H2       HW       0.417000       1.00800           0
     18592 TIP3     2221     TP3      O        OW      -0.834000       16.0000           0
     18593 TIP3     2221     TP3      H1       HW       0.417000       1.00800           0
     18594 TIP3     2221     TP3      H2       HW       0.417000       1.00800           0
     18595 TIP3     2222     TP3      O        OW      -0.834000       16.0000           0
     18596 TIP3     2222     TP3      H1       HW       0.417000       1.00800           0
     18597 TIP3     2222     TP3      H2       HW       0.417000       1.00800           0
     18598 TIP3     2223     TP3      O        OW      -0.834000       16.0000           0
     18599 TIP3     2223     TP3      H1       HW       0.417000       1.00800           0
     18600 TIP3     2223     TP3      H2       HW       0.417000       1.00800           0
     18601 TIP3     2224     TP3      O        OW      -0.834000       16.0000           0
     18602 TIP3     2224     TP3      H1       HW       0.417000       1.00800           0
     18603 TIP3     2224     TP3      H2       HW       0.417000       1.00800           0
     18604 TIP3     2225     TP3      O        OW      -0.834000       16.0000           0
     18605 TIP3     2225     TP3      H1       HW       0.417000       1.00800           0
     18606 TIP3     2225     TP3      H2       HW       0.417000       1.00800           0
     18607 TIP3     2226     TP3      O        OW      -0.834000       16.0000           0
     18608 TIP3     2226     TP3      H1       HW       0.417000       1.00800           0
     18609 TIP3     2226     TP3      H2       HW       0.417000       1.00800           0
     18610 TIP3     2227     TP3      O        OW      -0.834000       16.0000           0
     18611 TIP3     2227     TP3      H1       HW       0.417000       1.00800           0
     18612 TIP3     2227     TP3      H2       HW       0.417000       1.00800           0
     18613 TIP3     2228     TP3      O        OW      -0.834000       16.0000           0
     18614 TIP3     2228     TP3      H1       HW       0.417000       1.00800           0
     18615 TIP3     2228     TP3      H2       HW       0.417000       1.00800           0
     18616 TIP3     2229     TP3      O        OW      -0.834000       16.0000           0
     18617 TIP3     2229     TP3      H1       HW       0.417000       1.00800           0
     18618 TIP3     2229     TP3      H2       HW       0.417000       1.00800           0
     18619 TIP3     2230     TP3      O        OW      -0.834000       16.0000           0
     18620 TIP3     2230     TP3      H1       HW       0.417000       1.00800           0
     18621 TIP3     2230     TP3      H2       HW       0.417000       1.00800           0
     18622 TIP3     2231     TP3      O        OW      -0.834000       16.0000           0
     18623 TIP3     2231     TP3      H1       HW       0.417000       1.00800           0
     18624 TIP3     2231     TP3      H2       HW       0.417000       1.00800           0
     18625 TIP3     2232     TP3      O        OW      -0.834000       16.0000           0
     18626 TIP3     2232     TP3      H1       HW       0.417000       1.00800           0
     18627 TIP3     2232     TP3      H2       HW       0.417000       1.00800           0
     18628 TIP3     2233     TP3      O        OW      -0.834000       16.0000           0
     18629 TIP3     2233     TP3      H1       HW       0.417000       1.00800           0
     18630 TIP3     2233     TP3      H2       HW       0.417000       1.00800           0
     18631 TIP3     2234     TP3      O        OW      -0.834000       16.0000           0
     18632 TIP3     2234     TP3      H1       HW       0.417000       1.00800           0
     18633 TIP3     2234     TP3      H2       HW       0.417000       1.00800           0
     18634 TIP3     2235     TP3      O        OW      -0.834000       16.0000           0
     18635 TIP3     2235     TP3      H1       HW       0.417000       1.00800           0
     18636 TIP3     2235     TP3      H2       HW       0.417000       1.00800           0
     18637 TIP3     2236     TP3      O        OW      -0.834000       16.0000           0
     18638 TIP3     2236     TP3      H1       HW       0.417000       1.00800           0
     18639 TIP3     2236     TP3      H2       HW       0.417000       1.00800           0
     18640 TIP3     2237     TP3      O        OW      -0.834000       16.0000           0
     18641 TIP3     2237     TP3      H1       HW       0.417000       1.00800           0
     18642 TIP3     2237     TP3      H2       HW       0.417000       1.00800           0
     18643 TIP3     2238     TP3      O        OW      -0.834000       16.0000           0
     18644 TIP3     2238     TP3      H1       HW       0.417000       1.00800           0
     18645 TIP3     2238     TP3      H2       HW       0.417000       1.00800           0
     18646 TIP3     2239     TP3      O        OW      -0.834000       16.0000           0
     18647 TIP3     2239     TP3      H1       HW       0.417000       1.00800           0
     18648 TIP3     2239     TP3      H2       HW       0.417000       1.00800           0
     18649 TIP3     2240     TP3      O        OW      -0.834000       16.0000           0
     18650 TIP3     2240     TP3      H1       HW       0.417000       1.00800           0
     18651 TIP3     2240     TP3      H2       HW       0.417000       1.00800           0
     18652 TIP3     2241     TP3      O        OW      -0.834000       16.0000           0
     18653 TIP3     2241     TP3      H1       HW       0.417000       1.00800           0
     18654 TIP3     2241     TP3      H2       HW       0.417000       1.00800           0
     18655 TIP3     2242     TP3      O        OW      -0.834000       16.0000           0
     18656 TIP3     2242     TP3      H1       HW       0.417000       1.00800           0
     18657 TIP3     2242     TP3      H2       HW       0.417000       1.00800           0
     18658 TIP3     2243     TP3      O        OW      -0.834000       16.0000           0
     18659 TIP3     2243     TP3      H1       HW       0.417000       1.00800           0
     18660 TIP3     2243     TP3      H2       HW       0.417000       1.00800           0
     18661 TIP3     2244     TP3      O        OW      -0.834000       16.0000           0
     18662 TIP3     2244     TP3      H1       HW       0.417000       1.00800           0
     18663 TIP3     2244     TP3      H2       HW       0.417000       1.00800           0
     18664 TIP3     2245     TP3      O        OW      -0.834000       16.0000           0
     18665 TIP3     2245     TP3      H1       HW       0.417000       1.00800           0
     18666 TIP3     2245     TP3      H2       HW       0.417000       1.00800           0
     18667 TIP3     2246     TP3      O        OW      -0.834000       16.0000           0
     18668 TIP3     2246     TP3      H1       HW       0.417000       1.00800           0
     18669 TIP3     2246     TP3      H2       HW       0.417000       1.00800           0
     18670 TIP3     2247     TP3      O        OW      -0.834000       16.0000           0
     18671 TIP3     2247     TP3      H1       HW       0.417000       1.00800           0
     18672 TIP3     2247     TP3      H2       HW       0.417000       1.00800           0
     18673 TIP3     2248     TP3      O        OW      -0.834000       16.0000           0
     18674 TIP3     2248     TP3      H1       HW       0.417000       1.00800           0
     18675 TIP3     2248     TP3      H2       HW       0.417000       1.00800           0
     18676 TIP3     2249     TP3      O        OW      -0.834000       16.0000           0
     18677 TIP3     2249     TP3      H1       HW       0.417000       1.00800           0
     18678 TIP3     2249     TP3      H2       HW       0.417000       1.00800           0
     18679 TIP3     2250     TP3      O        OW      -0.834000       16.0000           0
     18680 TIP3     2250     TP3      H1       HW       0.417000       1.00800           0
     18681 TIP3     2250     TP3      H2       HW       0.417000       1.00800           0
     18682 TIP3     2251     TP3      O        OW      -0.834000       16.0000           0
     18683 TIP3     2251     TP3      H1       HW       0.417000       1.00800           0
     18684 TIP3     2251     TP3      H2       HW       0.417000       1.00800           0
     18685 TIP3     2252     TP3      O        OW      -0.834000       16.0000           0
     18686 TIP3     2252     TP3      H1       HW       0.417000       1.00800           0
     18687 TIP3     2252     TP3      H2       HW       0.417000       1.00800           0
     18688 TIP3     2253     TP3      O        OW      -0.834000       16.0000           0
     18689 TIP3     2253     TP3      H1       HW       0.417000       1.00800           0
     18690 TIP3     2253     TP3      H2       HW       0.417000       1.00800           0
     18691 TIP3     2254     TP3      O        OW      -0.834000       16.0000           0
     18692 TIP3     2254     TP3      H1       HW       0.417000       1.00800           0
     18693 TIP3     2254     TP3      H2       HW       0.417000       1.00800           0
     18694 TIP3     2255     TP3      O        OW      -0.834000       16.0000           0
     18695 TIP3     2255     TP3      H1       HW       0.417000       1.00800           0
     18696 TIP3     2255     TP3      H2       HW       0.417000       1.00800           0
     18697 TIP3     2256     TP3      O        OW      -0.834000       16.0000           0
     18698 TIP3     2256     TP3      H1       HW       0.417000       1.00800           0
     18699 TIP3     2256     TP3      H2       HW       0.417000       1.00800           0
     18700 TIP3     2257     TP3      O        OW      -0.834000       16.0000           0
     18701 TIP3     2257     TP3      H1       HW       0.417000       1.00800           0
     18702 TIP3     2257     TP3      H2       HW       0.417000       1.00800           0
     18703 TIP3     2258     TP3      O        OW      -0.834000       16.0000           0
     18704 TIP3     2258     TP3      H1       HW       0.417000       1.00800           0
     18705 TIP3     2258     TP3      H2       HW       0.417000       1.00800           0
     18706 TIP3     2259     TP3      O        OW      -0.834000       16.0000           0
     18707 TIP3     2259     TP3      H1       HW       0.417000       1.00800           0
     18708 TIP3     2259     TP3      H2       HW       0.417000       1.00800           0
     18709 TIP3     2260     TP3      O        OW      -0.834000       16.0000           0
     18710 TIP3     2260     TP3      H1       HW       0.417000       1.00800           0
     18711 TIP3     2260     TP3      H2       HW       0.417000       1.00800           0
     18712 TIP3     2261     TP3      O        OW      -0.834000       16.0000           0
     18713 TIP3     2261     TP3      H1       HW       0.417000       1.00800           0
     18714 TIP3     2261     TP3      H2       HW       0.417000       1.00800           0
     18715 TIP3     2262     TP3      O        OW      -0.834000       16.0000           0
     18716 TIP3     2262     TP3      H1       HW       0.417000       1.00800           0
     18717 TIP3     2262     TP3      H2       HW       0.417000       1.00800           0
     18718 TIP3     2263     TP3      O        OW      -0.834000       16.0000           0
     18719 TIP3     2263     TP3      H1       HW       0.417000       1.00800           0
     18720 TIP3     2263     TP3      H2       HW       0.417000       1.00800           0
     18721 TIP3     2264     TP3      O        OW      -0.834000       16.0000           0
     18722 TIP3     2264     TP3      H1       HW       0.417000       1.00800           0
     18723 TIP3     2264     TP3      H2       HW       0.417000       1.00800           0
     18724 TIP3     2265     TP3      O        OW      -0.834000       16.0000           0
     18725 TIP3     2265     TP3      H1       HW       0.417000       1.00800           0
     18726 TIP3     2265     TP3      H2       HW       0.417000       1.00800           0
     18727 TIP3     2266     TP3      O        OW      -0.834000       16.0000           0
     18728 TIP3     2266     TP3      H1       HW       0.417000       1.00800           0
     18729 TIP3     2266     TP3      H2       HW       0.417000       1.00800           0
     18730 TIP3     2267     TP3      O        OW      -0.834000       16.0000           0
     18731 TIP3     2267     TP3      H1       HW       0.417000       1.00800           0
     18732 TIP3     2267     TP3      H2       HW       0.417000       1.00800           0
     18733 TIP3     2268     TP3      O        OW      -0.834000       16.0000           0
     18734 TIP3     2268     TP3      H1       HW       0.417000       1.00800           0
     18735 TIP3     2268     TP3      H2       HW       0.417000       1.00800           0
     18736 TIP3     2269     TP3      O        OW      -0.834000       16.0000           0
     18737 TIP3     2269     TP3      H1       HW       0.417000       1.00800           0
     18738 TIP3     2269     TP3      H2       HW       0.417000       1.00800           0
     18739 TIP3     2270     TP3      O        OW      -0.834000       16.0000           0
     18740 TIP3     2270     TP3      H1       HW       0.417000       1.00800           0
     18741 TIP3     2270     TP3      H2       HW       0.417000       1.00800           0
     18742 TIP3     2271     TP3      O        OW      -0.834000       16.0000           0
     18743 TIP3     2271     TP3      H1       HW       0.417000       1.00800           0
     18744 TIP3     2271     TP3      H2       HW       0.417000       1.00800           0
     18745 TIP3     2272     TP3      O        OW      -0.834000       16.0000           0
     18746 TIP3     2272     TP3      H1       HW       0.417000       1.00800           0
     18747 TIP3     2272     TP3      H2       HW       0.417000       1.00800           0
     18748 TIP3     2273     TP3      O        OW      -0.834000       16.0000           0
     18749 TIP3     2273     TP3      H1       HW       0.417000       1.00800           0
     18750 TIP3     2273     TP3      H2       HW       0.417000       1.00800           0
     18751 TIP3     2274     TP3      O        OW      -0.834000       16.0000           0
     18752 TIP3     2274     TP3      H1       HW       0.417000       1.00800           0
     18753 TIP3     2274     TP3      H2       HW       0.417000       1.00800           0
     18754 TIP3     2275     TP3      O        OW      -0.834000       16.0000           0
     18755 TIP3     2275     TP3      H1       HW       0.417000       1.00800           0
     18756 TIP3     2275     TP3      H2       HW       0.417000       1.00800           0
     18757 TIP3     2276     TP3      O        OW      -0.834000       16.0000           0
     18758 TIP3     2276     TP3      H1       HW       0.417000       1.00800           0
     18759 TIP3     2276     TP3      H2       HW       0.417000       1.00800           0
     18760 TIP3     2277     TP3      O        OW      -0.834000       16.0000           0
     18761 TIP3     2277     TP3      H1       HW       0.417000       1.00800           0
     18762 TIP3     2277     TP3      H2       HW       0.417000       1.00800           0
     18763 TIP3     2278     TP3      O        OW      -0.834000       16.0000           0
     18764 TIP3     2278     TP3      H1       HW       0.417000       1.00800           0
     18765 TIP3     2278     TP3      H2       HW       0.417000       1.00800           0
     18766 TIP3     2279     TP3      O        OW      -0.834000       16.0000           0
     18767 TIP3     2279     TP3      H1       HW       0.417000       1.00800           0
     18768 TIP3     2279     TP3      H2       HW       0.417000       1.00800           0
     18769 TIP3     2280     TP3      O        OW      -0.834000       16.0000           0
     18770 TIP3     2280     TP3      H1       HW       0.417000       1.00800           0
     18771 TIP3     2280     TP3      H2       HW       0.417000       1.00800           0
     18772 TIP3     2281     TP3      O        OW      -0.834000       16.0000           0
     18773 TIP3     2281     TP3      H1       HW       0.417000       1.00800           0
     18774 TIP3     2281     TP3      H2       HW       0.417000       1.00800           0
     18775 TIP3     2282     TP3      O        OW      -0.834000       16.0000           0
     18776 TIP3     2282     TP3      H1       HW       0.417000       1.00800           0
     18777 TIP3     2282     TP3      H2       HW       0.417000       1.00800           0
     18778 TIP3     2283     TP3      O        OW      -0.834000       16.0000           0
     18779 TIP3     2283     TP3      H1       HW       0.417000       1.00800           0
     18780 TIP3     2283     TP3      H2       HW       0.417000       1.00800           0
     18781 TIP3     2284     TP3      O        OW      -0.834000       16.0000           0
     18782 TIP3     2284     TP3      H1       HW       0.417000       1.00800           0
     18783 TIP3     2284     TP3      H2       HW       0.417000       1.00800           0
     18784 TIP3     2285     TP3      O        OW      -0.834000       16.0000           0
     18785 TIP3     2285     TP3      H1       HW       0.417000       1.00800           0
     18786 TIP3     2285     TP3      H2       HW       0.417000       1.00800           0
     18787 TIP3     2286     TP3      O        OW      -0.834000       16.0000           0
     18788 TIP3     2286     TP3      H1       HW       0.417000       1.00800           0
     18789 TIP3     2286     TP3      H2       HW       0.417000       1.00800           0
     18790 TIP3     2287     TP3      O        OW      -0.834000       16.0000           0
     18791 TIP3     2287     TP3      H1       HW       0.417000       1.00800           0
     18792 TIP3     2287     TP3      H2       HW       0.417000       1.00800           0
     18793 TIP3     2288     TP3      O        OW      -0.834000       16.0000           0
     18794 TIP3     2288     TP3      H1       HW       0.417000       1.00800           0
     18795 TIP3     2288     TP3      H2       HW       0.417000       1.00800           0
     18796 TIP3     2289     TP3      O        OW      -0.834000       16.0000           0
     18797 TIP3     2289     TP3      H1       HW       0.417000       1.00800           0
     18798 TIP3     2289     TP3      H2       HW       0.417000       1.00800           0
     18799 TIP3     2290     TP3      O        OW      -0.834000       16.0000           0
     18800 TIP3     2290     TP3      H1       HW       0.417000       1.00800           0
     18801 TIP3     2290     TP3      H2       HW       0.417000       1.00800           0
     18802 TIP3     2291     TP3      O        OW      -0.834000       16.0000           0
     18803 TIP3     2291     TP3      H1       HW       0.417000       1.00800           0
     18804 TIP3     2291     TP3      H2       HW       0.417000       1.00800           0
     18805 TIP3     2292     TP3      O        OW      -0.834000       16.0000           0
     18806 TIP3     2292     TP3      H1       HW       0.417000       1.00800           0
     18807 TIP3     2292     TP3      H2       HW       0.417000       1.00800           0
     18808 TIP3     2293     TP3      O        OW      -0.834000       16.0000           0
     18809 TIP3     2293     TP3      H1       HW       0.417000       1.00800           0
     18810 TIP3     2293     TP3      H2       HW       0.417000       1.00800           0
     18811 TIP3     2294     TP3      O        OW      -0.834000       16.0000           0
     18812 TIP3     2294     TP3      H1       HW       0.417000       1.00800           0
     18813 TIP3     2294     TP3      H2       HW       0.417000       1.00800           0
     18814 TIP3     2295     TP3      O        OW      -0.834000       16.0000           0
     18815 TIP3     2295     TP3      H1       HW       0.417000       1.00800           0
     18816 TIP3     2295     TP3      H2       HW       0.417000       1.00800           0
     18817 TIP3     2296     TP3      O        OW      -0.834000       16.0000           0
     18818 TIP3     2296     TP3      H1       HW       0.417000       1.00800           0
     18819 TIP3     2296     TP3      H2       HW       0.417000       1.00800           0
     18820 TIP3     2297     TP3      O        OW      -0.834000       16.0000           0
     18821 TIP3     2297     TP3      H1       HW       0.417000       1.00800           0
     18822 TIP3     2297     TP3      H2       HW       0.417000       1.00800           0
     18823 TIP3     2298     TP3      O        OW      -0.834000       16.0000           0
     18824 TIP3     2298     TP3      H1       HW       0.417000       1.00800           0
     18825 TIP3     2298     TP3      H2       HW       0.417000       1.00800           0
     18826 TIP3     2299     TP3      O        OW      -0.834000       16.0000           0
     18827 TIP3     2299     TP3      H1       HW       0.417000       1.00800           0
     18828 TIP3     2299     TP3      H2       HW       0.417000       1.00800           0
     18829 TIP3     2300     TP3      O        OW      -0.834000       16.0000           0
     18830 TIP3     2300     TP3      H1       HW       0.417000       1.00800           0
     18831 TIP3     2300     TP3      H2       HW       0.417000       1.00800           0
     18832 TIP3     2301     TP3      O        OW      -0.834000       16.0000           0
     18833 TIP3     2301     TP3      H1       HW       0.417000       1.00800           0
     18834 TIP3     2301     TP3      H2       HW       0.417000       1.00800           0
     18835 TIP3     2302     TP3      O        OW      -0.834000       16.0000           0
     18836 TIP3     2302     TP3      H1       HW       0.417000       1.00800           0
     18837 TIP3     2302     TP3      H2       HW       0.417000       1.00800           0
     18838 TIP3     2303     TP3      O        OW      -0.834000       16.0000           0
     18839 TIP3     2303     TP3      H1       HW       0.417000       1.00800           0
     18840 TIP3     2303     TP3      H2       HW       0.417000       1.00800           0
     18841 TIP3     2304     TP3      O        OW      -0.834000       16.0000           0
     18842 TIP3     2304     TP3      H1       HW       0.417000       1.00800           0
     18843 TIP3     2304     TP3      H2       HW       0.417000       1.00800           0
     18844 TIP3     2305     TP3      O        OW      -0.834000       16.0000           0
     18845 TIP3     2305     TP3      H1       HW       0.417000       1.00800           0
     18846 TIP3     2305     TP3      H2       HW       0.417000       1.00800           0
     18847 TIP3     2306     TP3      O        OW      -0.834000       16.0000           0
     18848 TIP3     2306     TP3      H1       HW       0.417000       1.00800           0
     18849 TIP3     2306     TP3      H2       HW       0.417000       1.00800           0
     18850 TIP3     2307     TP3      O        OW      -0.834000       16.0000           0
     18851 TIP3     2307     TP3      H1       HW       0.417000       1.00800           0
     18852 TIP3     2307     TP3      H2       HW       0.417000       1.00800           0
     18853 TIP3     2308     TP3      O        OW      -0.834000       16.0000           0
     18854 TIP3     2308     TP3      H1       HW       0.417000       1.00800           0
     18855 TIP3     2308     TP3      H2       HW       0.417000       1.00800           0
     18856 TIP3     2309     TP3      O        OW      -0.834000       16.0000           0
     18857 TIP3     2309     TP3      H1       HW       0.417000       1.00800           0
     18858 TIP3     2309     TP3      H2       HW       0.417000       1.00800           0
     18859 TIP3     2310     TP3      O        OW      -0.834000       16.0000           0
     18860 TIP3     2310     TP3      H1       HW       0.417000       1.00800           0
     18861 TIP3     2310     TP3      H2       HW       0.417000       1.00800           0
     18862 TIP3     2311     TP3      O        OW      -0.834000       16.0000           0
     18863 TIP3     2311     TP3      H1       HW       0.417000       1.00800           0
     18864 TIP3     2311     TP3      H2       HW       0.417000       1.00800           0
     18865 TIP3     2312     TP3      O        OW      -0.834000       16.0000           0
     18866 TIP3     2312     TP3      H1       HW       0.417000       1.00800           0
     18867 TIP3     2312     TP3      H2       HW       0.417000       1.00800           0
     18868 TIP3     2313     TP3      O        OW      -0.834000       16.0000           0
     18869 TIP3     2313     TP3      H1       HW       0.417000       1.00800           0
     18870 TIP3     2313     TP3      H2       HW       0.417000       1.00800           0
     18871 TIP3     2314     TP3      O        OW      -0.834000       16.0000           0
     18872 TIP3     2314     TP3      H1       HW       0.417000       1.00800           0
     18873 TIP3     2314     TP3      H2       HW       0.417000       1.00800           0
     18874 TIP3     2315     TP3      O        OW      -0.834000       16.0000           0
     18875 TIP3     2315     TP3      H1       HW       0.417000       1.00800           0
     18876 TIP3     2315     TP3      H2       HW       0.417000       1.00800           0
     18877 TIP3     2316     TP3      O        OW      -0.834000       16.0000           0
     18878 TIP3     2316     TP3      H1       HW       0.417000       1.00800           0
     18879 TIP3     2316     TP3      H2       HW       0.417000       1.00800           0
     18880 TIP3     2317     TP3      O        OW      -0.834000       16.0000           0
     18881 TIP3     2317     TP3      H1       HW       0.417000       1.00800           0
     18882 TIP3     2317     TP3      H2       HW       0.417000       1.00800           0
     18883 TIP3     2318     TP3      O        OW      -0.834000       16.0000           0
     18884 TIP3     2318     TP3      H1       HW       0.417000       1.00800           0
     18885 TIP3     2318     TP3      H2       HW       0.417000       1.00800           0
     18886 TIP3     2319     TP3      O        OW      -0.834000       16.0000           0
     18887 TIP3     2319     TP3      H1       HW       0.417000       1.00800           0
     18888 TIP3     2319     TP3      H2       HW       0.417000       1.00800           0
     18889 TIP3     2320     TP3      O        OW      -0.834000       16.0000           0
     18890 TIP3     2320     TP3      H1       HW       0.417000       1.00800           0
     18891 TIP3     2320     TP3      H2       HW       0.417000       1.00800           0
     18892 TIP3     2321     TP3      O        OW      -0.834000       16.0000           0
     18893 TIP3     2321     TP3      H1       HW       0.417000       1.00800           0
     18894 TIP3     2321     TP3      H2       HW       0.417000       1.00800           0
     18895 TIP3     2322     TP3      O        OW      -0.834000       16.0000           0
     18896 TIP3     2322     TP3      H1       HW       0.417000       1.00800           0
     18897 TIP3     2322     TP3      H2       HW       0.417000       1.00800           0
     18898 TIP3     2323     TP3      O        OW      -0.834000       16.0000           0
     18899 TIP3     2323     TP3      H1       HW       0.417000       1.00800           0
     18900 TIP3     2323     TP3      H2       HW       0.417000       1.00800           0
     18901 TIP3     2324     TP3      O        OW      -0.834000       16.0000           0
     18902 TIP3     2324     TP3      H1       HW       0.417000       1.00800           0
     18903 TIP3     2324     TP3      H2       HW       0.417000       1.00800           0
     18904 TIP3     2325     TP3      O        OW      -0.834000       16.0000           0
     18905 TIP3     2325     TP3      H1       HW       0.417000       1.00800           0
     18906 TIP3     2325     TP3      H2       HW       0.417000       1.00800           0
     18907 TIP3     2326     TP3      O        OW      -0.834000       16.0000           0
     18908 TIP3     2326     TP3      H1       HW       0.417000       1.00800           0
     18909 TIP3     2326     TP3      H2       HW       0.417000       1.00800           0
     18910 TIP3     2327     TP3      O        OW      -0.834000       16.0000           0
     18911 TIP3     2327     TP3      H1       HW       0.417000       1.00800           0
     18912 TIP3     2327     TP3      H2       HW       0.417000       1.00800           0
     18913 TIP3     2328     TP3      O        OW      -0.834000       16.0000           0
     18914 TIP3     2328     TP3      H1       HW       0.417000       1.00800           0
     18915 TIP3     2328     TP3      H2       HW       0.417000       1.00800           0
     18916 TIP3     2329     TP3      O        OW      -0.834000       16.0000           0
     18917 TIP3     2329     TP3      H1       HW       0.417000       1.00800           0
     18918 TIP3     2329     TP3      H2       HW       0.417000       1.00800           0
     18919 TIP3     2330     TP3      O        OW      -0.834000       16.0000           0
     18920 TIP3     2330     TP3      H1       HW       0.417000       1.00800           0
     18921 TIP3     2330     TP3      H2       HW       0.417000       1.00800           0
     18922 TIP3     2331     TP3      O        OW      -0.834000       16.0000           0
     18923 TIP3     2331     TP3      H1       HW       0.417000       1.00800           0
     18924 TIP3     2331     TP3      H2       HW       0.417000       1.00800           0
     18925 TIP3     2332     TP3      O        OW      -0.834000       16.0000           0
     18926 TIP3     2332     TP3      H1       HW       0.417000       1.00800           0
     18927 TIP3     2332     TP3      H2       HW       0.417000       1.00800           0
     18928 TIP3     2333     TP3      O        OW      -0.834000       16.0000           0
     18929 TIP3     2333     TP3      H1       HW       0.417000       1.00800           0
     18930 TIP3     2333     TP3      H2       HW       0.417000       1.00800           0
     18931 TIP3     2334     TP3      O        OW      -0.834000       16.0000           0
     18932 TIP3     2334     TP3      H1       HW       0.417000       1.00800           0
     18933 TIP3     2334     TP3      H2       HW       0.417000       1.00800           0
     18934 TIP3     2335     TP3      O        OW      -0.834000       16.0000           0
     18935 TIP3     2335     TP3      H1       HW       0.417000       1.00800           0
     18936 TIP3     2335     TP3      H2       HW       0.417000       1.00800           0
     18937 TIP3     2336     TP3      O        OW      -0.834000       16.0000           0
     18938 TIP3     2336     TP3      H1       HW       0.417000       1.00800           0
     18939 TIP3     2336     TP3      H2       HW       0.417000       1.00800           0
     18940 TIP3     2337     TP3      O        OW      -0.834000       16.0000           0
     18941 TIP3     2337     TP3      H1       HW       0.417000       1.00800           0
     18942 TIP3     2337     TP3      H2       HW       0.417000       1.00800           0
     18943 TIP3     2338     TP3      O        OW      -0.834000       16.0000           0
     18944 TIP3     2338     TP3      H1       HW       0.417000       1.00800           0
     18945 TIP3     2338     TP3      H2       HW       0.417000       1.00800           0
     18946 TIP3     2339     TP3      O        OW      -0.834000       16.0000           0
     18947 TIP3     2339     TP3      H1       HW       0.417000       1.00800           0
     18948 TIP3     2339     TP3      H2       HW       0.417000       1.00800           0
     18949 TIP3     2340     TP3      O        OW      -0.834000       16.0000           0
     18950 TIP3     2340     TP3      H1       HW       0.417000       1.00800           0
     18951 TIP3     2340     TP3      H2       HW       0.417000       1.00800           0
     18952 TIP3     2341     TP3      O        OW      -0.834000       16.0000           0
     18953 TIP3     2341     TP3      H1       HW       0.417000       1.00800           0
     18954 TIP3     2341     TP3      H2       HW       0.417000       1.00800           0
     18955 TIP3     2342     TP3      O        OW      -0.834000       16.0000           0
     18956 TIP3     2342     TP3      H1       HW       0.417000       1.00800           0
     18957 TIP3     2342     TP3      H2       HW       0.417000       1.00800           0
     18958 TIP3     2343     TP3      O        OW      -0.834000       16.0000           0
     18959 TIP3     2343     TP3      H1       HW       0.417000       1.00800           0
     18960 TIP3     2343     TP3      H2       HW       0.417000       1.00800           0
     18961 TIP3     2344     TP3      O        OW      -0.834000       16.0000           0
     18962 TIP3     2344     TP3      H1       HW       0.417000       1.00800           0
     18963 TIP3     2344     TP3      H2       HW       0.417000       1.00800           0
     18964 TIP3     2345     TP3      O        OW      -0.834000       16.0000           0
     18965 TIP3     2345     TP3      H1       HW       0.417000       1.00800           0
     18966 TIP3     2345     TP3      H2       HW       0.417000       1.00800           0
     18967 TIP3     2346     TP3      O        OW      -0.834000       16.0000           0
     18968 TIP3     2346     TP3      H1       HW       0.417000       1.00800           0
     18969 TIP3     2346     TP3      H2       HW       0.417000       1.00800           0
     18970 TIP3     2347     TP3      O        OW      -0.834000       16.0000           0
     18971 TIP3     2347     TP3      H1       HW       0.417000       1.00800           0
     18972 TIP3     2347     TP3      H2       HW       0.417000       1.00800           0
     18973 TIP3     2348     TP3      O        OW      -0.834000       16.0000           0
     18974 TIP3     2348     TP3      H1       HW       0.417000       1.00800           0
     18975 TIP3     2348     TP3      H2       HW       0.417000       1.00800           0
     18976 TIP3     2349     TP3      O        OW      -0.834000       16.0000           0
     18977 TIP3     2349     TP3      H1       HW       0.417000       1.00800           0
     18978 TIP3     2349     TP3      H2       HW       0.417000       1.00800           0
     18979 TIP3     2350     TP3      O        OW      -0.834000       16.0000           0
     18980 TIP3     2350     TP3      H1       HW       0.417000       1.00800           0
     18981 TIP3     2350     TP3      H2       HW       0.417000       1.00800           0
     18982 TIP3     2351     TP3      O        OW      -0.834000       16.0000           0
     18983 TIP3     2351     TP3      H1       HW       0.417000       1.00800           0
     18984 TIP3     2351     TP3      H2       HW       0.417000       1.00800           0
     18985 TIP3     2352     TP3      O        OW      -0.834000       16.0000           0
     18986 TIP3     2352     TP3      H1       HW       0.417000       1.00800           0
     18987 TIP3     2352     TP3      H2       HW       0.417000       1.00800           0
     18988 TIP3     2353     TP3      O        OW      -0.834000       16.0000           0
     18989 TIP3     2353     TP3      H1       HW       0.417000       1.00800           0
     18990 TIP3     2353     TP3      H2       HW       0.417000       1.00800           0
     18991 TIP3     2354     TP3      O        OW      -0.834000       16.0000           0
     18992 TIP3     2354     TP3      H1       HW       0.417000       1.00800           0
     18993 TIP3     2354     TP3      H2       HW       0.417000       1.00800           0
     18994 TIP3     2355     TP3      O        OW      -0.834000       16.0000           0
     18995 TIP3     2355     TP3      H1       HW       0.417000       1.00800           0
     18996 TIP3     2355     TP3      H2       HW       0.417000       1.00800           0
     18997 TIP3     2356     TP3      O        OW      -0.834000       16.0000           0
     18998 TIP3     2356     TP3      H1       HW       0.417000       1.00800           0
     18999 TIP3     2356     TP3      H2       HW       0.417000       1.00800           0
     19000 TIP3     2357     TP3      O        OW      -0.834000       16.0000           0
     19001 TIP3     2357     TP3      H1       HW       0.417000       1.00800           0
     19002 TIP3     2357     TP3      H2       HW       0.417000       1.00800           0
     19003 TIP3     2358     TP3      O        OW      -0.834000       16.0000           0
     19004 TIP3     2358     TP3      H1       HW       0.417000       1.00800           0
     19005 TIP3     2358     TP3      H2       HW       0.417000       1.00800           0
     19006 TIP3     2359     TP3      O        OW      -0.834000       16.0000           0
     19007 TIP3     2359     TP3      H1       HW       0.417000       1.00800           0
     19008 TIP3     2359     TP3      H2       HW       0.417000       1.00800           0
     19009 TIP3     2360     TP3      O        OW      -0.834000       16.0000           0
     19010 TIP3     2360     TP3      H1       HW       0.417000       1.00800           0
     19011 TIP3     2360     TP3      H2       HW       0.417000       1.00800           0
     19012 TIP3     2361     TP3      O        OW      -0.834000       16.0000           0
     19013 TIP3     2361     TP3      H1       HW       0.417000       1.00800           0
     19014 TIP3     2361     TP3      H2       HW       0.417000       1.00800           0
     19015 TIP3     2362     TP3      O        OW      -0.834000       16.0000           0
     19016 TIP3     2362     TP3      H1       HW       0.417000       1.00800           0
     19017 TIP3     2362     TP3      H2       HW       0.417000       1.00800           0
     19018 TIP3     2363     TP3      O        OW      -0.834000       16.0000           0
     19019 TIP3     2363     TP3      H1       HW       0.417000       1.00800           0
     19020 TIP3     2363     TP3      H2       HW       0.417000       1.00800           0
     19021 TIP3     2364     TP3      O        OW      -0.834000       16.0000           0
     19022 TIP3     2364     TP3      H1       HW       0.417000       1.00800           0
     19023 TIP3     2364     TP3      H2       HW       0.417000       1.00800           0
     19024 TIP3     2365     TP3      O        OW      -0.834000       16.0000           0
     19025 TIP3     2365     TP3      H1       HW       0.417000       1.00800           0
     19026 TIP3     2365     TP3      H2       HW       0.417000       1.00800           0
     19027 TIP3     2366     TP3      O        OW      -0.834000       16.0000           0
     19028 TIP3     2366     TP3      H1       HW       0.417000       1.00800           0
     19029 TIP3     2366     TP3      H2       HW       0.417000       1.00800           0
     19030 TIP3     2367     TP3      O        OW      -0.834000       16.0000           0
     19031 TIP3     2367     TP3      H1       HW       0.417000       1.00800           0
     19032 TIP3     2367     TP3      H2       HW       0.417000       1.00800           0
     19033 TIP3     2368     TP3      O        OW      -0.834000       16.0000           0
     19034 TIP3     2368     TP3      H1       HW       0.417000       1.00800           0
     19035 TIP3     2368     TP3      H2       HW       0.417000       1.00800           0
     19036 TIP3     2369     TP3      O        OW      -0.834000       16.0000           0
     19037 TIP3     2369     TP3      H1       HW       0.417000       1.00800           0
     19038 TIP3     2369     TP3      H2       HW       0.417000       1.00800           0
     19039 TIP3     2370     TP3      O        OW      -0.834000       16.0000           0
     19040 TIP3     2370     TP3      H1       HW       0.417000       1.00800           0
     19041 TIP3     2370     TP3      H2       HW       0.417000       1.00800           0
     19042 TIP3     2371     TP3      O        OW      -0.834000       16.0000           0
     19043 TIP3     2371     TP3      H1       HW       0.417000       1.00800           0
     19044 TIP3     2371     TP3      H2       HW       0.417000       1.00800           0
     19045 TIP3     2372     TP3      O        OW      -0.834000       16.0000           0
     19046 TIP3     2372     TP3      H1       HW       0.417000       1.00800           0
     19047 TIP3     2372     TP3      H2       HW       0.417000       1.00800           0
     19048 TIP3     2373     TP3      O        OW      -0.834000       16.0000           0
     19049 TIP3     2373     TP3      H1       HW       0.417000       1.00800           0
     19050 TIP3     2373     TP3      H2       HW       0.417000       1.00800           0
     19051 TIP3     2374     TP3      O        OW      -0.834000       16.0000           0
     19052 TIP3     2374     TP3      H1       HW       0.417000       1.00800           0
     19053 TIP3     2374     TP3      H2       HW       0.417000       1.00800           0
     19054 TIP3     2375     TP3      O        OW      -0.834000       16.0000           0
     19055 TIP3     2375     TP3      H1       HW       0.417000       1.00800           0
     19056 TIP3     2375     TP3      H2       HW       0.417000       1.00800           0
     19057 TIP3     2376     TP3      O        OW      -0.834000       16.0000           0
     19058 TIP3     2376     TP3      H1       HW       0.417000       1.00800           0
     19059 TIP3     2376     TP3      H2       HW       0.417000       1.00800           0
     19060 TIP3     2377     TP3      O        OW      -0.834000       16.0000           0
     19061 TIP3     2377     TP3      H1       HW       0.417000       1.00800           0
     19062 TIP3     2377     TP3      H2       HW       0.417000       1.00800           0
     19063 TIP3     2378     TP3      O        OW      -0.834000       16.0000           0
     19064 TIP3     2378     TP3      H1       HW       0.417000       1.00800           0
     19065 TIP3     2378     TP3      H2       HW       0.417000       1.00800           0
     19066 TIP3     2379     TP3      O        OW      -0.834000       16.0000           0
     19067 TIP3     2379     TP3      H1       HW       0.417000       1.00800           0
     19068 TIP3     2379     TP3      H2       HW       0.417000       1.00800           0
     19069 TIP3     2380     TP3      O        OW      -0.834000       16.0000           0
     19070 TIP3     2380     TP3      H1       HW       0.417000       1.00800           0
     19071 TIP3     2380     TP3      H2       HW       0.417000       1.00800           0
     19072 TIP3     2381     TP3      O        OW      -0.834000       16.0000           0
     19073 TIP3     2381     TP3      H1       HW       0.417000       1.00800           0
     19074 TIP3     2381     TP3      H2       HW       0.417000       1.00800           0
     19075 TIP3     2382     TP3      O        OW      -0.834000       16.0000           0
     19076 TIP3     2382     TP3      H1       HW       0.417000       1.00800           0
     19077 TIP3     2382     TP3      H2       HW       0.417000       1.00800           0
     19078 TIP3     2383     TP3      O        OW      -0.834000       16.0000           0
     19079 TIP3     2383     TP3      H1       HW       0.417000       1.00800           0
     19080 TIP3     2383     TP3      H2       HW       0.417000       1.00800           0
     19081 TIP3     2384     TP3      O        OW      -0.834000       16.0000           0
     19082 TIP3     2384     TP3      H1       HW       0.417000       1.00800           0
     19083 TIP3     2384     TP3      H2       HW       0.417000       1.00800           0
     19084 TIP3     2385     TP3      O        OW      -0.834000       16.0000           0
     19085 TIP3     2385     TP3      H1       HW       0.417000       1.00800           0
     19086 TIP3     2385     TP3      H2       HW       0.417000       1.00800           0
     19087 TIP3     2386     TP3      O        OW      -0.834000       16.0000           0
     19088 TIP3     2386     TP3      H1       HW       0.417000       1.00800           0
     19089 TIP3     2386     TP3      H2       HW       0.417000       1.00800           0
     19090 TIP3     2387     TP3      O        OW      -0.834000       16.0000           0
     19091 TIP3     2387     TP3      H1       HW       0.417000       1.00800           0
     19092 TIP3     2387     TP3      H2       HW       0.417000       1.00800           0
     19093 TIP3     2388     TP3      O        OW      -0.834000       16.0000           0
     19094 TIP3     2388     TP3      H1       HW       0.417000       1.00800           0
     19095 TIP3     2388     TP3      H2       HW       0.417000       1.00800           0
     19096 TIP3     2389     TP3      O        OW      -0.834000       16.0000           0
     19097 TIP3     2389     TP3      H1       HW       0.417000       1.00800           0
     19098 TIP3     2389     TP3      H2       HW       0.417000       1.00800           0
     19099 TIP3     2390     TP3      O        OW      -0.834000       16.0000           0
     19100 TIP3     2390     TP3      H1       HW       0.417000       1.00800           0
     19101 TIP3     2390     TP3      H2       HW       0.417000       1.00800           0
     19102 TIP3     2391     TP3      O        OW      -0.834000       16.0000           0
     19103 TIP3     2391     TP3      H1       HW       0.417000       1.00800           0
     19104 TIP3     2391     TP3      H2       HW       0.417000       1.00800           0
     19105 TIP3     2392     TP3      O        OW      -0.834000       16.0000           0
     19106 TIP3     2392     TP3      H1       HW       0.417000       1.00800           0
     19107 TIP3     2392     TP3      H2       HW       0.417000       1.00800           0
     19108 TIP3     2393     TP3      O        OW      -0.834000       16.0000           0
     19109 TIP3     2393     TP3      H1       HW       0.417000       1.00800           0
     19110 TIP3     2393     TP3      H2       HW       0.417000       1.00800           0
     19111 TIP3     2394     TP3      O        OW      -0.834000       16.0000           0
     19112 TIP3     2394     TP3      H1       HW       0.417000       1.00800           0
     19113 TIP3     2394     TP3      H2       HW       0.417000       1.00800           0
     19114 TIP3     2395     TP3      O        OW      -0.834000       16.0000           0
     19115 TIP3     2395     TP3      H1       HW       0.417000       1.00800           0
     19116 TIP3     2395     TP3      H2       HW       0.417000       1.00800           0
     19117 TIP3     2396     TP3      O        OW      -0.834000       16.0000           0
     19118 TIP3     2396     TP3      H1       HW       0.417000       1.00800           0
     19119 TIP3     2396     TP3      H2       HW       0.417000       1.00800           0
     19120 TIP3     2397     TP3      O        OW      -0.834000       16.0000           0
     19121 TIP3     2397     TP3      H1       HW       0.417000       1.00800           0
     19122 TIP3     2397     TP3      H2       HW       0.417000       1.00800           0
     19123 TIP3     2398     TP3      O        OW      -0.834000       16.0000           0
     19124 TIP3     2398     TP3      H1       HW       0.417000       1.00800           0
     19125 TIP3     2398     TP3      H2       HW       0.417000       1.00800           0
     19126 TIP3     2399     TP3      O        OW      -0.834000       16.0000           0
     19127 TIP3     2399     TP3      H1       HW       0.417000       1.00800           0
     19128 TIP3     2399     TP3      H2       HW       0.417000       1.00800           0
     19129 TIP3     2400     TP3      O        OW      -0.834000       16.0000           0
     19130 TIP3     2400     TP3      H1       HW       0.417000       1.00800           0
     19131 TIP3     2400     TP3      H2       HW       0.417000       1.00800           0
     19132 TIP3     2401     TP3      O        OW      -0.834000       16.0000           0
     19133 TIP3     2401     TP3      H1       HW       0.417000       1.00800           0
     19134 TIP3     2401     TP3      H2       HW       0.417000       1.00800           0
     19135 TIP3     2402     TP3      O        OW      -0.834000       16.0000           0
     19136 TIP3     2402     TP3      H1       HW       0.417000       1.00800           0
     19137 TIP3     2402     TP3      H2       HW       0.417000       1.00800           0
     19138 TIP3     2403     TP3      O        OW      -0.834000       16.0000           0
     19139 TIP3     2403     TP3      H1       HW       0.417000       1.00800           0
     19140 TIP3     2403     TP3      H2       HW       0.417000       1.00800           0
     19141 TIP3     2404     TP3      O        OW      -0.834000       16.0000           0
     19142 TIP3     2404     TP3      H1       HW       0.417000       1.00800           0
     19143 TIP3     2404     TP3      H2       HW       0.417000       1.00800           0
     19144 TIP3     2405     TP3      O        OW      -0.834000       16.0000           0
     19145 TIP3     2405     TP3      H1       HW       0.417000       1.00800           0
     19146 TIP3     2405     TP3      H2       HW       0.417000       1.00800           0
     19147 TIP3     2406     TP3      O        OW      -0.834000       16.0000           0
     19148 TIP3     2406     TP3      H1       HW       0.417000       1.00800           0
     19149 TIP3     2406     TP3      H2       HW       0.417000       1.00800           0
     19150 TIP3     2407     TP3      O        OW      -0.834000       16.0000           0
     19151 TIP3     2407     TP3      H1       HW       0.417000       1.00800           0
     19152 TIP3     2407     TP3      H2       HW       0.417000       1.00800           0
     19153 TIP3     2408     TP3      O        OW      -0.834000       16.0000           0
     19154 TIP3     2408     TP3      H1       HW       0.417000       1.00800           0
     19155 TIP3     2408     TP3      H2       HW       0.417000       1.00800           0
     19156 TIP3     2409     TP3      O        OW      -0.834000       16.0000           0
     19157 TIP3     2409     TP3      H1       HW       0.417000       1.00800           0
     19158 TIP3     2409     TP3      H2       HW       0.417000       1.00800           0
     19159 TIP3     2410     TP3      O        OW      -0.834000       16.0000           0
     19160 TIP3     2410     TP3      H1       HW       0.417000       1.00800           0
     19161 TIP3     2410     TP3      H2       HW       0.417000       1.00800           0
     19162 TIP3     2411     TP3      O        OW      -0.834000       16.0000           0
     19163 TIP3     2411     TP3      H1       HW       0.417000       1.00800           0
     19164 TIP3     2411     TP3      H2       HW       0.417000       1.00800           0
     19165 TIP3     2412     TP3      O        OW      -0.834000       16.0000           0
     19166 TIP3     2412     TP3      H1       HW       0.417000       1.00800           0
     19167 TIP3     2412     TP3      H2       HW       0.417000       1.00800           0
     19168 TIP3     2413     TP3      O        OW      -0.834000       16.0000           0
     19169 TIP3     2413     TP3      H1       HW       0.417000       1.00800           0
     19170 TIP3     2413     TP3      H2       HW       0.417000       1.00800           0
     19171 TIP3     2414     TP3      O        OW      -0.834000       16.0000           0
     19172 TIP3     2414     TP3      H1       HW       0.417000       1.00800           0
     19173 TIP3     2414     TP3      H2       HW       0.417000       1.00800           0
     19174 TIP3     2415     TP3      O        OW      -0.834000       16.0000           0
     19175 TIP3     2415     TP3      H1       HW       0.417000       1.00800           0
     19176 TIP3     2415     TP3      H2       HW       0.417000       1.00800           0
     19177 TIP3     2416     TP3      O        OW      -0.834000       16.0000           0
     19178 TIP3     2416     TP3      H1       HW       0.417000       1.00800           0
     19179 TIP3     2416     TP3      H2       HW       0.417000       1.00800           0
     19180 TIP3     2417     TP3      O        OW      -0.834000       16.0000           0
     19181 TIP3     2417     TP3      H1       HW       0.417000       1.00800           0
     19182 TIP3     2417     TP3      H2       HW       0.417000       1.00800           0
     19183 TIP3     2418     TP3      O        OW      -0.834000       16.0000           0
     19184 TIP3     2418     TP3      H1       HW       0.417000       1.00800           0
     19185 TIP3     2418     TP3      H2       HW       0.417000       1.00800           0
     19186 TIP3     2419     TP3      O        OW      -0.834000       16.0000           0
     19187 TIP3     2419     TP3      H1       HW       0.417000       1.00800           0
     19188 TIP3     2419     TP3      H2       HW       0.417000       1.00800           0
     19189 TIP3     2420     TP3      O        OW      -0.834000       16.0000           0
     19190 TIP3     2420     TP3      H1       HW       0.417000       1.00800           0
     19191 TIP3     2420     TP3      H2       HW       0.417000       1.00800           0
     19192 TIP3     2421     TP3      O        OW      -0.834000       16.0000           0
     19193 TIP3     2421     TP3      H1       HW       0.417000       1.00800           0
     19194 TIP3     2421     TP3      H2       HW       0.417000       1.00800           0
     19195 TIP3     2422     TP3      O        OW      -0.834000       16.0000           0
     19196 TIP3     2422     TP3      H1       HW       0.417000       1.00800           0
     19197 TIP3     2422     TP3      H2       HW       0.417000       1.00800           0
     19198 TIP3     2423     TP3      O        OW      -0.834000       16.0000           0
     19199 TIP3     2423     TP3      H1       HW       0.417000       1.00800           0
     19200 TIP3     2423     TP3      H2       HW       0.417000       1.00800           0
     19201 TIP3     2424     TP3      O        OW      -0.834000       16.0000           0
     19202 TIP3     2424     TP3      H1       HW       0.417000       1.00800           0
     19203 TIP3     2424     TP3      H2       HW       0.417000       1.00800           0
     19204 TIP3     2425     TP3      O        OW      -0.834000       16.0000           0
     19205 TIP3     2425     TP3      H1       HW       0.417000       1.00800           0
     19206 TIP3     2425     TP3      H2       HW       0.417000       1.00800           0
     19207 TIP3     2426     TP3      O        OW      -0.834000       16.0000           0
     19208 TIP3     2426     TP3      H1       HW       0.417000       1.00800           0
     19209 TIP3     2426     TP3      H2       HW       0.417000       1.00800           0
     19210 TIP3     2427     TP3      O        OW      -0.834000       16.0000           0
     19211 TIP3     2427     TP3      H1       HW       0.417000       1.00800           0
     19212 TIP3     2427     TP3      H2       HW       0.417000       1.00800           0
     19213 TIP3     2428     TP3      O        OW      -0.834000       16.0000           0
     19214 TIP3     2428     TP3      H1       HW       0.417000       1.00800           0
     19215 TIP3     2428     TP3      H2       HW       0.417000       1.00800           0
     19216 TIP3     2429     TP3      O        OW      -0.834000       16.0000           0
     19217 TIP3     2429     TP3      H1       HW       0.417000       1.00800           0
     19218 TIP3     2429     TP3      H2       HW       0.417000       1.00800           0
     19219 TIP3     2430     TP3      O        OW      -0.834000       16.0000           0
     19220 TIP3     2430     TP3      H1       HW       0.417000       1.00800           0
     19221 TIP3     2430     TP3      H2       HW       0.417000       1.00800           0
     19222 TIP3     2431     TP3      O        OW      -0.834000       16.0000           0
     19223 TIP3     2431     TP3      H1       HW       0.417000       1.00800           0
     19224 TIP3     2431     TP3      H2       HW       0.417000       1.00800           0
     19225 TIP3     2432     TP3      O        OW      -0.834000       16.0000           0
     19226 TIP3     2432     TP3      H1       HW       0.417000       1.00800           0
     19227 TIP3     2432     TP3      H2       HW       0.417000       1.00800           0
     19228 TIP3     2433     TP3      O        OW      -0.834000       16.0000           0
     19229 TIP3     2433     TP3      H1       HW       0.417000       1.00800           0
     19230 TIP3     2433     TP3      H2       HW       0.417000       1.00800           0
     19231 TIP3     2434     TP3      O        OW      -0.834000       16.0000           0
     19232 TIP3     2434     TP3      H1       HW       0.417000       1.00800           0
     19233 TIP3     2434     TP3      H2       HW       0.417000       1.00800           0
     19234 TIP3     2435     TP3      O        OW      -0.834000       16.0000           0
     19235 TIP3     2435     TP3      H1       HW       0.417000       1.00800           0
     19236 TIP3     2435     TP3      H2       HW       0.417000       1.00800           0
     19237 TIP3     2436     TP3      O        OW      -0.834000       16.0000           0
     19238 TIP3     2436     TP3      H1       HW       0.417000       1.00800           0
     19239 TIP3     2436     TP3      H2       HW       0.417000       1.00800           0
     19240 TIP3     2437     TP3      O        OW      -0.834000       16.0000           0
     19241 TIP3     2437     TP3      H1       HW       0.417000       1.00800           0
     19242 TIP3     2437     TP3      H2       HW       0.417000       1.00800           0
     19243 TIP3     2438     TP3      O        OW      -0.834000       16.0000           0
     19244 TIP3     2438     TP3      H1       HW       0.417000       1.00800           0
     19245 TIP3     2438     TP3      H2       HW       0.417000       1.00800           0
     19246 TIP3     2439     TP3      O        OW      -0.834000       16.0000           0
     19247 TIP3     2439     TP3      H1       HW       0.417000       1.00800           0
     19248 TIP3     2439     TP3      H2       HW       0.417000       1.00800           0
     19249 TIP3     2440     TP3      O        OW      -0.834000       16.0000           0
     19250 TIP3     2440     TP3      H1       HW       0.417000       1.00800           0
     19251 TIP3     2440     TP3      H2       HW       0.417000       1.00800           0
     19252 TIP3     2441     TP3      O        OW      -0.834000       16.0000           0
     19253 TIP3     2441     TP3      H1       HW       0.417000       1.00800           0
     19254 TIP3     2441     TP3      H2       HW       0.417000       1.00800           0
     19255 TIP3     2442     TP3      O        OW      -0.834000       16.0000           0
     19256 TIP3     2442     TP3      H1       HW       0.417000       1.00800           0
     19257 TIP3     2442     TP3      H2       HW       0.417000       1.00800           0
     19258 TIP3     2443     TP3      O        OW      -0.834000       16.0000           0
     19259 TIP3     2443     TP3      H1       HW       0.417000       1.00800           0
     19260 TIP3     2443     TP3      H2       HW       0.417000       1.00800           0
     19261 TIP3     2444     TP3      O        OW      -0.834000       16.0000           0
     19262 TIP3     2444     TP3      H1       HW       0.417000       1.00800           0
     19263 TIP3     2444     TP3      H2       HW       0.417000       1.00800           0
     19264 TIP3     2445     TP3      O        OW      -0.834000       16.0000           0
     19265 TIP3     2445     TP3      H1       HW       0.417000       1.00800           0
     19266 TIP3     2445     TP3      H2       HW       0.417000       1.00800           0
     19267 TIP3     2446     TP3      O        OW      -0.834000       16.0000           0
     19268 TIP3     2446     TP3      H1       HW       0.417000       1.00800           0
     19269 TIP3     2446     TP3      H2       HW       0.417000       1.00800           0
     19270 TIP3     2447     TP3      O        OW      -0.834000       16.0000           0
     19271 TIP3     2447     TP3      H1       HW       0.417000       1.00800           0
     19272 TIP3     2447     TP3      H2       HW       0.417000       1.00800           0
     19273 TIP3     2448     TP3      O        OW      -0.834000       16.0000           0
     19274 TIP3     2448     TP3      H1       HW       0.417000       1.00800           0
     19275 TIP3     2448     TP3      H2       HW       0.417000       1.00800           0
     19276 TIP3     2449     TP3      O        OW      -0.834000       16.0000           0
     19277 TIP3     2449     TP3      H1       HW       0.417000       1.00800           0
     19278 TIP3     2449     TP3      H2       HW       0.417000       1.00800           0
     19279 TIP3     2450     TP3      O        OW      -0.834000       16.0000           0
     19280 TIP3     2450     TP3      H1       HW       0.417000       1.00800           0
     19281 TIP3     2450     TP3      H2       HW       0.417000       1.00800           0
     19282 TIP3     2451     TP3      O        OW      -0.834000       16.0000           0
     19283 TIP3     2451     TP3      H1       HW       0.417000       1.00800           0
     19284 TIP3     2451     TP3      H2       HW       0.417000       1.00800           0
     19285 TIP3     2452     TP3      O        OW      -0.834000       16.0000           0
     19286 TIP3     2452     TP3      H1       HW       0.417000       1.00800           0
     19287 TIP3     2452     TP3      H2       HW       0.417000       1.00800           0
     19288 TIP3     2453     TP3      O        OW      -0.834000       16.0000           0
     19289 TIP3     2453     TP3      H1       HW       0.417000       1.00800           0
     19290 TIP3     2453     TP3      H2       HW       0.417000       1.00800           0
     19291 TIP3     2454     TP3      O        OW      -0.834000       16.0000           0
     19292 TIP3     2454     TP3      H1       HW       0.417000       1.00800           0
     19293 TIP3     2454     TP3      H2       HW       0.417000       1.00800           0
     19294 TIP3     2455     TP3      O        OW      -0.834000       16.0000           0
     19295 TIP3     2455     TP3      H1       HW       0.417000       1.00800           0
     19296 TIP3     2455     TP3      H2       HW       0.417000       1.00800           0
     19297 TIP3     2456     TP3      O        OW      -0.834000       16.0000           0
     19298 TIP3     2456     TP3      H1       HW       0.417000       1.00800           0
     19299 TIP3     2456     TP3      H2       HW       0.417000       1.00800           0
     19300 TIP3     2457     TP3      O        OW      -0.834000       16.0000           0
     19301 TIP3     2457     TP3      H1       HW       0.417000       1.00800           0
     19302 TIP3     2457     TP3      H2       HW       0.417000       1.00800           0
     19303 TIP3     2458     TP3      O        OW      -0.834000       16.0000           0
     19304 TIP3     2458     TP3      H1       HW       0.417000       1.00800           0
     19305 TIP3     2458     TP3      H2       HW       0.417000       1.00800           0
     19306 TIP3     2459     TP3      O        OW      -0.834000       16.0000           0
     19307 TIP3     2459     TP3      H1       HW       0.417000       1.00800           0
     19308 TIP3     2459     TP3      H2       HW       0.417000       1.00800           0
     19309 TIP3     2460     TP3      O        OW      -0.834000       16.0000           0
     19310 TIP3     2460     TP3      H1       HW       0.417000       1.00800           0
     19311 TIP3     2460     TP3      H2       HW       0.417000       1.00800           0
     19312 TIP3     2461     TP3      O        OW      -0.834000       16.0000           0
     19313 TIP3     2461     TP3      H1       HW       0.417000       1.00800           0
     19314 TIP3     2461     TP3      H2       HW       0.417000       1.00800           0
     19315 TIP3     2462     TP3      O        OW      -0.834000       16.0000           0
     19316 TIP3     2462     TP3      H1       HW       0.417000       1.00800           0
     19317 TIP3     2462     TP3      H2       HW       0.417000       1.00800           0
     19318 TIP3     2463     TP3      O        OW      -0.834000       16.0000           0
     19319 TIP3     2463     TP3      H1       HW       0.417000       1.00800           0
     19320 TIP3     2463     TP3      H2       HW       0.417000       1.00800           0
     19321 TIP3     2464     TP3      O        OW      -0.834000       16.0000           0
     19322 TIP3     2464     TP3      H1       HW       0.417000       1.00800           0
     19323 TIP3     2464     TP3      H2       HW       0.417000       1.00800           0
     19324 TIP3     2465     TP3      O        OW      -0.834000       16.0000           0
     19325 TIP3     2465     TP3      H1       HW       0.417000       1.00800           0
     19326 TIP3     2465     TP3      H2       HW       0.417000       1.00800           0
     19327 TIP3     2466     TP3      O        OW      -0.834000       16.0000           0
     19328 TIP3     2466     TP3      H1       HW       0.417000       1.00800           0
     19329 TIP3     2466     TP3      H2       HW       0.417000       1.00800           0
     19330 TIP3     2467     TP3      O        OW      -0.834000       16.0000           0
     19331 TIP3     2467     TP3      H1       HW       0.417000       1.00800           0
     19332 TIP3     2467     TP3      H2       HW       0.417000       1.00800           0
     19333 TIP3     2468     TP3      O        OW      -0.834000       16.0000           0
     19334 TIP3     2468     TP3      H1       HW       0.417000       1.00800           0
     19335 TIP3     2468     TP3      H2       HW       0.417000       1.00800           0
     19336 TIP3     2469     TP3      O        OW      -0.834000       16.0000           0
     19337 TIP3     2469     TP3      H1       HW       0.417000       1.00800           0
     19338 TIP3     2469     TP3      H2       HW       0.417000       1.00800           0
     19339 TIP3     2470     TP3      O        OW      -0.834000       16.0000           0
     19340 TIP3     2470     TP3      H1       HW       0.417000       1.00800           0
     19341 TIP3     2470     TP3      H2       HW       0.417000       1.00800           0
     19342 TIP3     2471     TP3      O        OW      -0.834000       16.0000           0
     19343 TIP3     2471     TP3      H1       HW       0.417000       1.00800           0
     19344 TIP3     2471     TP3      H2       HW       0.417000       1.00800           0
     19345 TIP3     2472     TP3      O        OW      -0.834000       16.0000           0
     19346 TIP3     2472     TP3      H1       HW       0.417000       1.00800           0
     19347 TIP3     2472     TP3      H2       HW       0.417000       1.00800           0
     19348 TIP3     2473     TP3      O        OW      -0.834000       16.0000           0
     19349 TIP3     2473     TP3      H1       HW       0.417000       1.00800           0
     19350 TIP3     2473     TP3      H2       HW       0.417000       1.00800           0
     19351 TIP3     2474     TP3      O        OW      -0.834000       16.0000           0
     19352 TIP3     2474     TP3      H1       HW       0.417000       1.00800           0
     19353 TIP3     2474     TP3      H2       HW       0.417000       1.00800           0
     19354 TIP3     2475     TP3      O        OW      -0.834000       16.0000           0
     19355 TIP3     2475     TP3      H1       HW       0.417000       1.00800           0
     19356 TIP3     2475     TP3      H2       HW       0.417000       1.00800           0
     19357 TIP3     2476     TP3      O        OW      -0.834000       16.0000           0
     19358 TIP3     2476     TP3      H1       HW       0.417000       1.00800           0
     19359 TIP3     2476     TP3      H2       HW       0.417000       1.00800           0
     19360 TIP3     2477     TP3      O        OW      -0.834000       16.0000           0
     19361 TIP3     2477     TP3      H1       HW       0.417000       1.00800           0
     19362 TIP3     2477     TP3      H2       HW       0.417000       1.00800           0
     19363 TIP3     2478     TP3      O        OW      -0.834000       16.0000           0
     19364 TIP3     2478     TP3      H1       HW       0.417000       1.00800           0
     19365 TIP3     2478     TP3      H2       HW       0.417000       1.00800           0
     19366 TIP3     2479     TP3      O        OW      -0.834000       16.0000           0
     19367 TIP3     2479     TP3      H1       HW       0.417000       1.00800           0
     19368 TIP3     2479     TP3      H2       HW       0.417000       1.00800           0
     19369 TIP3     2480     TP3      O        OW      -0.834000       16.0000           0
     19370 TIP3     2480     TP3      H1       HW       0.417000       1.00800           0
     19371 TIP3     2480     TP3      H2       HW       0.417000       1.00800           0
     19372 TIP3     2481     TP3      O        OW      -0.834000       16.0000           0
     19373 TIP3     2481     TP3      H1       HW       0.417000       1.00800           0
     19374 TIP3     2481     TP3      H2       HW       0.417000       1.00800           0
     19375 TIP3     2482     TP3      O        OW      -0.834000       16.0000           0
     19376 TIP3     2482     TP3      H1       HW       0.417000       1.00800           0
     19377 TIP3     2482     TP3      H2       HW       0.417000       1.00800           0
     19378 TIP3     2483     TP3      O        OW      -0.834000       16.0000           0
     19379 TIP3     2483     TP3      H1       HW       0.417000       1.00800           0
     19380 TIP3     2483     TP3      H2       HW       0.417000       1.00800           0
     19381 TIP3     2484     TP3      O        OW      -0.834000       16.0000           0
     19382 TIP3     2484     TP3      H1       HW       0.417000       1.00800           0
     19383 TIP3     2484     TP3      H2       HW       0.417000       1.00800           0
     19384 TIP3     2485     TP3      O        OW      -0.834000       16.0000           0
     19385 TIP3     2485     TP3      H1       HW       0.417000       1.00800           0
     19386 TIP3     2485     TP3      H2       HW       0.417000       1.00800           0
     19387 TIP3     2486     TP3      O        OW      -0.834000       16.0000           0
     19388 TIP3     2486     TP3      H1       HW       0.417000       1.00800           0
     19389 TIP3     2486     TP3      H2       HW       0.417000       1.00800           0
     19390 TIP3     2487     TP3      O        OW      -0.834000       16.0000           0
     19391 TIP3     2487     TP3      H1       HW       0.417000       1.00800           0
     19392 TIP3     2487     TP3      H2       HW       0.417000       1.00800           0
     19393 TIP3     2488     TP3      O        OW      -0.834000       16.0000           0
     19394 TIP3     2488     TP3      H1       HW       0.417000       1.00800           0
     19395 TIP3     2488     TP3      H2       HW       0.417000       1.00800           0
     19396 TIP3     2489     TP3      O        OW      -0.834000       16.0000           0
     19397 TIP3     2489     TP3      H1       HW       0.417000       1.00800           0
     19398 TIP3     2489     TP3      H2       HW       0.417000       1.00800           0
     19399 TIP3     2490     TP3      O        OW      -0.834000       16.0000           0
     19400 TIP3     2490     TP3      H1       HW       0.417000       1.00800           0
     19401 TIP3     2490     TP3      H2       HW       0.417000       1.00800           0
     19402 TIP3     2491     TP3      O        OW      -0.834000       16.0000           0
     19403 TIP3     2491     TP3      H1       HW       0.417000       1.00800           0
     19404 TIP3     2491     TP3      H2       HW       0.417000       1.00800           0
     19405 TIP3     2492     TP3      O        OW      -0.834000       16.0000           0
     19406 TIP3     2492     TP3      H1       HW       0.417000       1.00800           0
     19407 TIP3     2492     TP3      H2       HW       0.417000       1.00800           0
     19408 TIP3     2493     TP3      O        OW      -0.834000       16.0000           0
     19409 TIP3     2493     TP3      H1       HW       0.417000       1.00800           0
     19410 TIP3     2493     TP3      H2       HW       0.417000       1.00800           0
     19411 TIP3     2494     TP3      O        OW      -0.834000       16.0000           0
     19412 TIP3     2494     TP3      H1       HW       0.417000       1.00800           0
     19413 TIP3     2494     TP3      H2       HW       0.417000       1.00800           0
     19414 TIP3     2495     TP3      O        OW      -0.834000       16.0000           0
     19415 TIP3     2495     TP3      H1       HW       0.417000       1.00800           0
     19416 TIP3     2495     TP3      H2       HW       0.417000       1.00800           0
     19417 TIP3     2496     TP3      O        OW      -0.834000       16.0000           0
     19418 TIP3     2496     TP3      H1       HW       0.417000       1.00800           0
     19419 TIP3     2496     TP3      H2       HW       0.417000       1.00800           0
     19420 TIP3     2497     TP3      O        OW      -0.834000       16.0000           0
     19421 TIP3     2497     TP3      H1       HW       0.417000       1.00800           0
     19422 TIP3     2497     TP3      H2       HW       0.417000       1.00800           0
     19423 TIP3     2498     TP3      O        OW      -0.834000       16.0000           0
     19424 TIP3     2498     TP3      H1       HW       0.417000       1.00800           0
     19425 TIP3     2498     TP3      H2       HW       0.417000       1.00800           0
     19426 TIP3     2499     TP3      O        OW      -0.834000       16.0000           0
     19427 TIP3     2499     TP3      H1       HW       0.417000       1.00800           0
     19428 TIP3     2499     TP3      H2       HW       0.417000       1.00800           0
     19429 TIP3     2500     TP3      O        OW      -0.834000       16.0000           0
     19430 TIP3     2500     TP3      H1       HW       0.417000       1.00800           0
     19431 TIP3     2500     TP3      H2       HW       0.417000       1.00800           0
     19432 TIP3     2501     TP3      O        OW      -0.834000       16.0000           0
     19433 TIP3     2501     TP3      H1       HW       0.417000       1.00800           0
     19434 TIP3     2501     TP3      H2       HW       0.417000       1.00800           0
     19435 TIP3     2502     TP3      O        OW      -0.834000       16.0000           0
     19436 TIP3     2502     TP3      H1       HW       0.417000       1.00800           0
     19437 TIP3     2502     TP3      H2       HW       0.417000       1.00800           0
     19438 TIP3     2503     TP3      O        OW      -0.834000       16.0000           0
     19439 TIP3     2503     TP3      H1       HW       0.417000       1.00800           0
     19440 TIP3     2503     TP3      H2       HW       0.417000       1.00800           0
     19441 TIP3     2504     TP3      O        OW      -0.834000       16.0000           0
     19442 TIP3     2504     TP3      H1       HW       0.417000       1.00800           0
     19443 TIP3     2504     TP3      H2       HW       0.417000       1.00800           0
     19444 TIP3     2505     TP3      O        OW      -0.834000       16.0000           0
     19445 TIP3     2505     TP3      H1       HW       0.417000       1.00800           0
     19446 TIP3     2505     TP3      H2       HW       0.417000       1.00800           0
     19447 TIP3     2506     TP3      O        OW      -0.834000       16.0000           0
     19448 TIP3     2506     TP3      H1       HW       0.417000       1.00800           0
     19449 TIP3     2506     TP3      H2       HW       0.417000       1.00800           0
     19450 TIP3     2507     TP3      O        OW      -0.834000       16.0000           0
     19451 TIP3     2507     TP3      H1       HW       0.417000       1.00800           0
     19452 TIP3     2507     TP3      H2       HW       0.417000       1.00800           0
     19453 TIP3     2508     TP3      O        OW      -0.834000       16.0000           0
     19454 TIP3     2508     TP3      H1       HW       0.417000       1.00800           0
     19455 TIP3     2508     TP3      H2       HW       0.417000       1.00800           0
     19456 TIP3     2509     TP3      O        OW      -0.834000       16.0000           0
     19457 TIP3     2509     TP3      H1       HW       0.417000       1.00800           0
     19458 TIP3     2509     TP3      H2       HW       0.417000       1.00800           0
     19459 TIP3     2510     TP3      O        OW      -0.834000       16.0000           0
     19460 TIP3     2510     TP3      H1       HW       0.417000       1.00800           0
     19461 TIP3     2510     TP3      H2       HW       0.417000       1.00800           0
     19462 TIP3     2511     TP3      O        OW      -0.834000       16.0000           0
     19463 TIP3     2511     TP3      H1       HW       0.417000       1.00800           0
     19464 TIP3     2511     TP3      H2       HW       0.417000       1.00800           0
     19465 TIP3     2512     TP3      O        OW      -0.834000       16.0000           0
     19466 TIP3     2512     TP3      H1       HW       0.417000       1.00800           0
     19467 TIP3     2512     TP3      H2       HW       0.417000       1.00800           0
     19468 TIP3     2513     TP3      O        OW      -0.834000       16.0000           0
     19469 TIP3     2513     TP3      H1       HW       0.417000       1.00800           0
     19470 TIP3     2513     TP3      H2       HW       0.417000       1.00800           0
     19471 TIP3     2514     TP3      O        OW      -0.834000       16.0000           0
     19472 TIP3     2514     TP3      H1       HW       0.417000       1.00800           0
     19473 TIP3     2514     TP3      H2       HW       0.417000       1.00800           0
     19474 TIP3     2515     TP3      O        OW      -0.834000       16.0000           0
     19475 TIP3     2515     TP3      H1       HW       0.417000       1.00800           0
     19476 TIP3     2515     TP3      H2       HW       0.417000       1.00800           0
     19477 TIP3     2516     TP3      O        OW      -0.834000       16.0000           0
     19478 TIP3     2516     TP3      H1       HW       0.417000       1.00800           0
     19479 TIP3     2516     TP3      H2       HW       0.417000       1.00800           0
     19480 TIP3     2517     TP3      O        OW      -0.834000       16.0000           0
     19481 TIP3     2517     TP3      H1       HW       0.417000       1.00800           0
     19482 TIP3     2517     TP3      H2       HW       0.417000       1.00800           0
     19483 TIP3     2518     TP3      O        OW      -0.834000       16.0000           0
     19484 TIP3     2518     TP3      H1       HW       0.417000       1.00800           0
     19485 TIP3     2518     TP3      H2       HW       0.417000       1.00800           0
     19486 TIP3     2519     TP3      O        OW      -0.834000       16.0000           0
     19487 TIP3     2519     TP3      H1       HW       0.417000       1.00800           0
     19488 TIP3     2519     TP3      H2       HW       0.417000       1.00800           0
     19489 TIP3     2520     TP3      O        OW      -0.834000       16.0000           0
     19490 TIP3     2520     TP3      H1       HW       0.417000       1.00800           0
     19491 TIP3     2520     TP3      H2       HW       0.417000       1.00800           0
     19492 TIP3     2521     TP3      O        OW      -0.834000       16.0000           0
     19493 TIP3     2521     TP3      H1       HW       0.417000       1.00800           0
     19494 TIP3     2521     TP3      H2       HW       0.417000       1.00800           0
     19495 TIP3     2522     TP3      O        OW      -0.834000       16.0000           0
     19496 TIP3     2522     TP3      H1       HW       0.417000       1.00800           0
     19497 TIP3     2522     TP3      H2       HW       0.417000       1.00800           0
     19498 TIP3     2523     TP3      O        OW      -0.834000       16.0000           0
     19499 TIP3     2523     TP3      H1       HW       0.417000       1.00800           0
     19500 TIP3     2523     TP3      H2       HW       0.417000       1.00800           0
     19501 TIP3     2524     TP3      O        OW      -0.834000       16.0000           0
     19502 TIP3     2524     TP3      H1       HW       0.417000       1.00800           0
     19503 TIP3     2524     TP3      H2       HW       0.417000       1.00800           0
     19504 TIP3     2525     TP3      O        OW      -0.834000       16.0000           0
     19505 TIP3     2525     TP3      H1       HW       0.417000       1.00800           0
     19506 TIP3     2525     TP3      H2       HW       0.417000       1.00800           0
     19507 TIP3     2526     TP3      O        OW      -0.834000       16.0000           0
     19508 TIP3     2526     TP3      H1       HW       0.417000       1.00800           0
     19509 TIP3     2526     TP3      H2       HW       0.417000       1.00800           0
     19510 TIP3     2527     TP3      O        OW      -0.834000       16.0000           0
     19511 TIP3     2527     TP3      H1       HW       0.417000       1.00800           0
     19512 TIP3     2527     TP3      H2       HW       0.417000       1.00800           0
     19513 TIP3     2528     TP3      O        OW      -0.834000       16.0000           0
     19514 TIP3     2528     TP3      H1       HW       0.417000       1.00800           0
     19515 TIP3     2528     TP3      H2       HW       0.417000       1.00800           0
     19516 TIP3     2529     TP3      O        OW      -0.834000       16.0000           0
     19517 TIP3     2529     TP3      H1       HW       0.417000       1.00800           0
     19518 TIP3     2529     TP3      H2       HW       0.417000       1.00800           0
     19519 TIP3     2530     TP3      O        OW      -0.834000       16.0000           0
     19520 TIP3     2530     TP3      H1       HW       0.417000       1.00800           0
     19521 TIP3     2530     TP3      H2       HW       0.417000       1.00800           0
     19522 TIP3     2531     TP3      O        OW      -0.834000       16.0000           0
     19523 TIP3     2531     TP3      H1       HW       0.417000       1.00800           0
     19524 TIP3     2531     TP3      H2       HW       0.417000       1.00800           0
     19525 TIP3     2532     TP3      O        OW      -0.834000       16.0000           0
     19526 TIP3     2532     TP3      H1       HW       0.417000       1.00800           0
     19527 TIP3     2532     TP3      H2       HW       0.417000       1.00800           0
     19528 TIP3     2533     TP3      O        OW      -0.834000       16.0000           0
     19529 TIP3     2533     TP3      H1       HW       0.417000       1.00800           0
     19530 TIP3     2533     TP3      H2       HW       0.417000       1.00800           0
     19531 TIP3     2534     TP3      O        OW      -0.834000       16.0000           0
     19532 TIP3     2534     TP3      H1       HW       0.417000       1.00800           0
     19533 TIP3     2534     TP3      H2       HW       0.417000       1.00800           0
     19534 TIP3     2535     TP3      O        OW      -0.834000       16.0000           0
     19535 TIP3     2535     TP3      H1       HW       0.417000       1.00800           0
     19536 TIP3     2535     TP3      H2       HW       0.417000       1.00800           0
     19537 TIP3     2536     TP3      O        OW      -0.834000       16.0000           0
     19538 TIP3     2536     TP3      H1       HW       0.417000       1.00800           0
     19539 TIP3     2536     TP3      H2       HW       0.417000       1.00800           0
     19540 TIP3     2537     TP3      O        OW      -0.834000       16.0000           0
     19541 TIP3     2537     TP3      H1       HW       0.417000       1.00800           0
     19542 TIP3     2537     TP3      H2       HW       0.417000       1.00800           0
     19543 TIP3     2538     TP3      O        OW      -0.834000       16.0000           0
     19544 TIP3     2538     TP3      H1       HW       0.417000       1.00800           0
     19545 TIP3     2538     TP3      H2       HW       0.417000       1.00800           0
     19546 TIP3     2539     TP3      O        OW      -0.834000       16.0000           0
     19547 TIP3     2539     TP3      H1       HW       0.417000       1.00800           0
     19548 TIP3     2539     TP3      H2       HW       0.417000       1.00800           0
     19549 TIP3     2540     TP3      O        OW      -0.834000       16.0000           0
     19550 TIP3     2540     TP3      H1       HW       0.417000       1.00800           0
     19551 TIP3     2540     TP3      H2       HW       0.417000       1.00800           0
     19552 TIP3     2541     TP3      O        OW      -0.834000       16.0000           0
     19553 TIP3     2541     TP3      H1       HW       0.417000       1.00800           0
     19554 TIP3     2541     TP3      H2       HW       0.417000       1.00800           0
     19555 TIP3     2542     TP3      O        OW      -0.834000       16.0000           0
     19556 TIP3     2542     TP3      H1       HW       0.417000       1.00800           0
     19557 TIP3     2542     TP3      H2       HW       0.417000       1.00800           0
     19558 TIP3     2543     TP3      O        OW      -0.834000       16.0000           0
     19559 TIP3     2543     TP3      H1       HW       0.417000       1.00800           0
     19560 TIP3     2543     TP3      H2       HW       0.417000       1.00800           0
     19561 TIP3     2544     TP3      O        OW      -0.834000       16.0000           0
     19562 TIP3     2544     TP3      H1       HW       0.417000       1.00800           0
     19563 TIP3     2544     TP3      H2       HW       0.417000       1.00800           0
     19564 TIP3     2545     TP3      O        OW      -0.834000       16.0000           0
     19565 TIP3     2545     TP3      H1       HW       0.417000       1.00800           0
     19566 TIP3     2545     TP3      H2       HW       0.417000       1.00800           0
     19567 TIP3     2546     TP3      O        OW      -0.834000       16.0000           0
     19568 TIP3     2546     TP3      H1       HW       0.417000       1.00800           0
     19569 TIP3     2546     TP3      H2       HW       0.417000       1.00800           0
     19570 TIP3     2547     TP3      O        OW      -0.834000       16.0000           0
     19571 TIP3     2547     TP3      H1       HW       0.417000       1.00800           0
     19572 TIP3     2547     TP3      H2       HW       0.417000       1.00800           0
     19573 TIP3     2548     TP3      O        OW      -0.834000       16.0000           0
     19574 TIP3     2548     TP3      H1       HW       0.417000       1.00800           0
     19575 TIP3     2548     TP3      H2       HW       0.417000       1.00800           0
     19576 TIP3     2549     TP3      O        OW      -0.834000       16.0000           0
     19577 TIP3     2549     TP3      H1       HW       0.417000       1.00800           0
     19578 TIP3     2549     TP3      H2       HW       0.417000       1.00800           0
     19579 TIP3     2550     TP3      O        OW      -0.834000       16.0000           0
     19580 TIP3     2550     TP3      H1       HW       0.417000       1.00800           0
     19581 TIP3     2550     TP3      H2       HW       0.417000       1.00800           0
     19582 TIP3     2551     TP3      O        OW      -0.834000       16.0000           0
     19583 TIP3     2551     TP3      H1       HW       0.417000       1.00800           0
     19584 TIP3     2551     TP3      H2       HW       0.417000       1.00800           0
     19585 TIP3     2552     TP3      O        OW      -0.834000       16.0000           0
     19586 TIP3     2552     TP3      H1       HW       0.417000       1.00800           0
     19587 TIP3     2552     TP3      H2       HW       0.417000       1.00800           0
     19588 TIP3     2553     TP3      O        OW      -0.834000       16.0000           0
     19589 TIP3     2553     TP3      H1       HW       0.417000       1.00800           0
     19590 TIP3     2553     TP3      H2       HW       0.417000       1.00800           0
     19591 TIP3     2554     TP3      O        OW      -0.834000       16.0000           0
     19592 TIP3     2554     TP3      H1       HW       0.417000       1.00800           0
     19593 TIP3     2554     TP3      H2       HW       0.417000       1.00800           0
     19594 TIP3     2555     TP3      O        OW      -0.834000       16.0000           0
     19595 TIP3     2555     TP3      H1       HW       0.417000       1.00800           0
     19596 TIP3     2555     TP3      H2       HW       0.417000       1.00800           0
     19597 TIP3     2556     TP3      O        OW      -0.834000       16.0000           0
     19598 TIP3     2556     TP3      H1       HW       0.417000       1.00800           0
     19599 TIP3     2556     TP3      H2       HW       0.417000       1.00800           0
     19600 TIP3     2557     TP3      O        OW      -0.834000       16.0000           0
     19601 TIP3     2557     TP3      H1       HW       0.417000       1.00800           0
     19602 TIP3     2557     TP3      H2       HW       0.417000       1.00800           0
     19603 TIP3     2558     TP3      O        OW      -0.834000       16.0000           0
     19604 TIP3     2558     TP3      H1       HW       0.417000       1.00800           0
     19605 TIP3     2558     TP3      H2       HW       0.417000       1.00800           0
     19606 TIP3     2559     TP3      O        OW      -0.834000       16.0000           0
     19607 TIP3     2559     TP3      H1       HW       0.417000       1.00800           0
     19608 TIP3     2559     TP3      H2       HW       0.417000       1.00800           0
     19609 TIP3     2560     TP3      O        OW      -0.834000       16.0000           0
     19610 TIP3     2560     TP3      H1       HW       0.417000       1.00800           0
     19611 TIP3     2560     TP3      H2       HW       0.417000       1.00800           0
     19612 TIP3     2561     TP3      O        OW      -0.834000       16.0000           0
     19613 TIP3     2561     TP3      H1       HW       0.417000       1.00800           0
     19614 TIP3     2561     TP3      H2       HW       0.417000       1.00800           0
     19615 TIP3     2562     TP3      O        OW      -0.834000       16.0000           0
     19616 TIP3     2562     TP3      H1       HW       0.417000       1.00800           0
     19617 TIP3     2562     TP3      H2       HW       0.417000       1.00800           0
     19618 TIP3     2563     TP3      O        OW      -0.834000       16.0000           0
     19619 TIP3     2563     TP3      H1       HW       0.417000       1.00800           0
     19620 TIP3     2563     TP3      H2       HW       0.417000       1.00800           0
     19621 TIP3     2564     TP3      O        OW      -0.834000       16.0000           0
     19622 TIP3     2564     TP3      H1       HW       0.417000       1.00800           0
     19623 TIP3     2564     TP3      H2       HW       0.417000       1.00800           0
     19624 TIP3     2565     TP3      O        OW      -0.834000       16.0000           0
     19625 TIP3     2565     TP3      H1       HW       0.417000       1.00800           0
     19626 TIP3     2565     TP3      H2       HW       0.417000       1.00800           0
     19627 TIP3     2566     TP3      O        OW      -0.834000       16.0000           0
     19628 TIP3     2566     TP3      H1       HW       0.417000       1.00800           0
     19629 TIP3     2566     TP3      H2       HW       0.417000       1.00800           0
     19630 TIP3     2567     TP3      O        OW      -0.834000       16.0000           0
     19631 TIP3     2567     TP3      H1       HW       0.417000       1.00800           0
     19632 TIP3     2567     TP3      H2       HW       0.417000       1.00800           0
     19633 TIP3     2568     TP3      O        OW      -0.834000       16.0000           0
     19634 TIP3     2568     TP3      H1       HW       0.417000       1.00800           0
     19635 TIP3     2568     TP3      H2       HW       0.417000       1.00800           0
     19636 TIP3     2569     TP3      O        OW      -0.834000       16.0000           0
     19637 TIP3     2569     TP3      H1       HW       0.417000       1.00800           0
     19638 TIP3     2569     TP3      H2       HW       0.417000       1.00800           0
     19639 TIP3     2570     TP3      O        OW      -0.834000       16.0000           0
     19640 TIP3     2570     TP3      H1       HW       0.417000       1.00800           0
     19641 TIP3     2570     TP3      H2       HW       0.417000       1.00800           0
     19642 TIP3     2571     TP3      O        OW      -0.834000       16.0000           0
     19643 TIP3     2571     TP3      H1       HW       0.417000       1.00800           0
     19644 TIP3     2571     TP3      H2       HW       0.417000       1.00800           0
     19645 TIP3     2572     TP3      O        OW      -0.834000       16.0000           0
     19646 TIP3     2572     TP3      H1       HW       0.417000       1.00800           0
     19647 TIP3     2572     TP3      H2       HW       0.417000       1.00800           0
     19648 TIP3     2573     TP3      O        OW      -0.834000       16.0000           0
     19649 TIP3     2573     TP3      H1       HW       0.417000       1.00800           0
     19650 TIP3     2573     TP3      H2       HW       0.417000       1.00800           0
     19651 TIP3     2574     TP3      O        OW      -0.834000       16.0000           0
     19652 TIP3     2574     TP3      H1       HW       0.417000       1.00800           0
     19653 TIP3     2574     TP3      H2       HW       0.417000       1.00800           0
     19654 TIP3     2575     TP3      O        OW      -0.834000       16.0000           0
     19655 TIP3     2575     TP3      H1       HW       0.417000       1.00800           0
     19656 TIP3     2575     TP3      H2       HW       0.417000       1.00800           0
     19657 TIP3     2576     TP3      O        OW      -0.834000       16.0000           0
     19658 TIP3     2576     TP3      H1       HW       0.417000       1.00800           0
     19659 TIP3     2576     TP3      H2       HW       0.417000       1.00800           0
     19660 TIP3     2577     TP3      O        OW      -0.834000       16.0000           0
     19661 TIP3     2577     TP3      H1       HW       0.417000       1.00800           0
     19662 TIP3     2577     TP3      H2       HW       0.417000       1.00800           0
     19663 TIP3     2578     TP3      O        OW      -0.834000       16.0000           0
     19664 TIP3     2578     TP3      H1       HW       0.417000       1.00800           0
     19665 TIP3     2578     TP3      H2       HW       0.417000       1.00800           0
     19666 TIP3     2579     TP3      O        OW      -0.834000       16.0000           0
     19667 TIP3     2579     TP3      H1       HW       0.417000       1.00800           0
     19668 TIP3     2579     TP3      H2       HW       0.417000       1.00800           0
     19669 TIP3     2580     TP3      O        OW      -0.834000       16.0000           0
     19670 TIP3     2580     TP3      H1       HW       0.417000       1.00800           0
     19671 TIP3     2580     TP3      H2       HW       0.417000       1.00800           0
     19672 TIP3     2581     TP3      O        OW      -0.834000       16.0000           0
     19673 TIP3     2581     TP3      H1       HW       0.417000       1.00800           0
     19674 TIP3     2581     TP3      H2       HW       0.417000       1.00800           0
     19675 TIP3     2582     TP3      O        OW      -0.834000       16.0000           0
     19676 TIP3     2582     TP3      H1       HW       0.417000       1.00800           0
     19677 TIP3     2582     TP3      H2       HW       0.417000       1.00800           0
     19678 TIP3     2583     TP3      O        OW      -0.834000       16.0000           0
     19679 TIP3     2583     TP3      H1       HW       0.417000       1.00800           0
     19680 TIP3     2583     TP3      H2       HW       0.417000       1.00800           0
     19681 TIP3     2584     TP3      O        OW      -0.834000       16.0000           0
     19682 TIP3     2584     TP3      H1       HW       0.417000       1.00800           0
     19683 TIP3     2584     TP3      H2       HW       0.417000       1.00800           0
     19684 TIP3     2585     TP3      O        OW      -0.834000       16.0000           0
     19685 TIP3     2585     TP3      H1       HW       0.417000       1.00800           0
     19686 TIP3     2585     TP3      H2       HW       0.417000       1.00800           0
     19687 TIP3     2586     TP3      O        OW      -0.834000       16.0000           0
     19688 TIP3     2586     TP3      H1       HW       0.417000       1.00800           0
     19689 TIP3     2586     TP3      H2       HW       0.417000       1.00800           0
     19690 TIP3     2587     TP3      O        OW      -0.834000       16.0000           0
     19691 TIP3     2587     TP3      H1       HW       0.417000       1.00800           0
     19692 TIP3     2587     TP3      H2       HW       0.417000       1.00800           0
     19693 TIP3     2588     TP3      O        OW      -0.834000       16.0000           0
     19694 TIP3     2588     TP3      H1       HW       0.417000       1.00800           0
     19695 TIP3     2588     TP3      H2       HW       0.417000       1.00800           0
     19696 TIP3     2589     TP3      O        OW      -0.834000       16.0000           0
     19697 TIP3     2589     TP3      H1       HW       0.417000       1.00800           0
     19698 TIP3     2589     TP3      H2       HW       0.417000       1.00800           0
     19699 TIP3     2590     TP3      O        OW      -0.834000       16.0000           0
     19700 TIP3     2590     TP3      H1       HW       0.417000       1.00800           0
     19701 TIP3     2590     TP3      H2       HW       0.417000       1.00800           0
     19702 TIP3     2591     TP3      O        OW      -0.834000       16.0000           0
     19703 TIP3     2591     TP3      H1       HW       0.417000       1.00800           0
     19704 TIP3     2591     TP3      H2       HW       0.417000       1.00800           0
     19705 TIP3     2592     TP3      O        OW      -0.834000       16.0000           0
     19706 TIP3     2592     TP3      H1       HW       0.417000       1.00800           0
     19707 TIP3     2592     TP3      H2       HW       0.417000       1.00800           0
     19708 TIP3     2593     TP3      O        OW      -0.834000       16.0000           0
     19709 TIP3     2593     TP3      H1       HW       0.417000       1.00800           0
     19710 TIP3     2593     TP3      H2       HW       0.417000       1.00800           0
     19711 TIP3     2594     TP3      O        OW      -0.834000       16.0000           0
     19712 TIP3     2594     TP3      H1       HW       0.417000       1.00800           0
     19713 TIP3     2594     TP3      H2       HW       0.417000       1.00800           0
     19714 TIP3     2595     TP3      O        OW      -0.834000       16.0000           0
     19715 TIP3     2595     TP3      H1       HW       0.417000       1.00800           0
     19716 TIP3     2595     TP3      H2       HW       0.417000       1.00800           0
     19717 TIP3     2596     TP3      O        OW      -0.834000       16.0000           0
     19718 TIP3     2596     TP3      H1       HW       0.417000       1.00800           0
     19719 TIP3     2596     TP3      H2       HW       0.417000       1.00800           0
     19720 TIP3     2597     TP3      O        OW      -0.834000       16.0000           0
     19721 TIP3     2597     TP3      H1       HW       0.417000       1.00800           0
     19722 TIP3     2597     TP3      H2       HW       0.417000       1.00800           0
     19723 TIP3     2598     TP3      O        OW      -0.834000       16.0000           0
     19724 TIP3     2598     TP3      H1       HW       0.417000       1.00800           0
     19725 TIP3     2598     TP3      H2       HW       0.417000       1.00800           0
     19726 TIP3     2599     TP3      O        OW      -0.834000       16.0000           0
     19727 TIP3     2599     TP3      H1       HW       0.417000       1.00800           0
     19728 TIP3     2599     TP3      H2       HW       0.417000       1.00800           0
     19729 TIP3     2600     TP3      O        OW      -0.834000       16.0000           0
     19730 TIP3     2600     TP3      H1       HW       0.417000       1.00800           0
     19731 TIP3     2600     TP3      H2       HW       0.417000       1.00800           0
     19732 TIP3     2601     TP3      O        OW      -0.834000       16.0000           0
     19733 TIP3     2601     TP3      H1       HW       0.417000       1.00800           0
     19734 TIP3     2601     TP3      H2       HW       0.417000       1.00800           0
     19735 TIP3     2602     TP3      O        OW      -0.834000       16.0000           0
     19736 TIP3     2602     TP3      H1       HW       0.417000       1.00800           0
     19737 TIP3     2602     TP3      H2       HW       0.417000       1.00800           0
     19738 TIP3     2603     TP3      O        OW      -0.834000       16.0000           0
     19739 TIP3     2603     TP3      H1       HW       0.417000       1.00800           0
     19740 TIP3     2603     TP3      H2       HW       0.417000       1.00800           0
     19741 TIP3     2604     TP3      O        OW      -0.834000       16.0000           0
     19742 TIP3     2604     TP3      H1       HW       0.417000       1.00800           0
     19743 TIP3     2604     TP3      H2       HW       0.417000       1.00800           0
     19744 TIP3     2605     TP3      O        OW      -0.834000       16.0000           0
     19745 TIP3     2605     TP3      H1       HW       0.417000       1.00800           0
     19746 TIP3     2605     TP3      H2       HW       0.417000       1.00800           0
     19747 TIP3     2606     TP3      O        OW      -0.834000       16.0000           0
     19748 TIP3     2606     TP3      H1       HW       0.417000       1.00800           0
     19749 TIP3     2606     TP3      H2       HW       0.417000       1.00800           0
     19750 TIP3     2607     TP3      O        OW      -0.834000       16.0000           0
     19751 TIP3     2607     TP3      H1       HW       0.417000       1.00800           0
     19752 TIP3     2607     TP3      H2       HW       0.417000       1.00800           0
     19753 TIP3     2608     TP3      O        OW      -0.834000       16.0000           0
     19754 TIP3     2608     TP3      H1       HW       0.417000       1.00800           0
     19755 TIP3     2608     TP3      H2       HW       0.417000       1.00800           0
     19756 TIP3     2609     TP3      O        OW      -0.834000       16.0000           0
     19757 TIP3     2609     TP3      H1       HW       0.417000       1.00800           0
     19758 TIP3     2609     TP3      H2       HW       0.417000       1.00800           0
     19759 TIP3     2610     TP3      O        OW      -0.834000       16.0000           0
     19760 TIP3     2610     TP3      H1       HW       0.417000       1.00800           0
     19761 TIP3     2610     TP3      H2       HW       0.417000       1.00800           0
     19762 TIP3     2611     TP3      O        OW      -0.834000       16.0000           0
     19763 TIP3     2611     TP3      H1       HW       0.417000       1.00800           0
     19764 TIP3     2611     TP3      H2       HW       0.417000       1.00800           0
     19765 TIP3     2612     TP3      O        OW      -0.834000       16.0000           0
     19766 TIP3     2612     TP3      H1       HW       0.417000       1.00800           0
     19767 TIP3     2612     TP3      H2       HW       0.417000       1.00800           0
     19768 TIP3     2613     TP3      O        OW      -0.834000       16.0000           0
     19769 TIP3     2613     TP3      H1       HW       0.417000       1.00800           0
     19770 TIP3     2613     TP3      H2       HW       0.417000       1.00800           0
     19771 TIP3     2614     TP3      O        OW      -0.834000       16.0000           0
     19772 TIP3     2614     TP3      H1       HW       0.417000       1.00800           0
     19773 TIP3     2614     TP3      H2       HW       0.417000       1.00800           0
     19774 TIP3     2615     TP3      O        OW      -0.834000       16.0000           0
     19775 TIP3     2615     TP3      H1       HW       0.417000       1.00800           0
     19776 TIP3     2615     TP3      H2       HW       0.417000       1.00800           0
     19777 TIP3     2616     TP3      O        OW      -0.834000       16.0000           0
     19778 TIP3     2616     TP3      H1       HW       0.417000       1.00800           0
     19779 TIP3     2616     TP3      H2       HW       0.417000       1.00800           0
     19780 TIP3     2617     TP3      O        OW      -0.834000       16.0000           0
     19781 TIP3     2617     TP3      H1       HW       0.417000       1.00800           0
     19782 TIP3     2617     TP3      H2       HW       0.417000       1.00800           0
     19783 TIP3     2618     TP3      O        OW      -0.834000       16.0000           0
     19784 TIP3     2618     TP3      H1       HW       0.417000       1.00800           0
     19785 TIP3     2618     TP3      H2       HW       0.417000       1.00800           0
     19786 TIP3     2619     TP3      O        OW      -0.834000       16.0000           0
     19787 TIP3     2619     TP3      H1       HW       0.417000       1.00800           0
     19788 TIP3     2619     TP3      H2       HW       0.417000       1.00800           0
     19789 TIP3     2620     TP3      O        OW      -0.834000       16.0000           0
     19790 TIP3     2620     TP3      H1       HW       0.417000       1.00800           0
     19791 TIP3     2620     TP3      H2       HW       0.417000       1.00800           0
     19792 TIP3     2621     TP3      O        OW      -0.834000       16.0000           0
     19793 TIP3     2621     TP3      H1       HW       0.417000       1.00800           0
     19794 TIP3     2621     TP3      H2       HW       0.417000       1.00800           0
     19795 TIP3     2622     TP3      O        OW      -0.834000       16.0000           0
     19796 TIP3     2622     TP3      H1       HW       0.417000       1.00800           0
     19797 TIP3     2622     TP3      H2       HW       0.417000       1.00800           0
     19798 TIP3     2623     TP3      O        OW      -0.834000       16.0000           0
     19799 TIP3     2623     TP3      H1       HW       0.417000       1.00800           0
     19800 TIP3     2623     TP3      H2       HW       0.417000       1.00800           0
     19801 TIP3     2624     TP3      O        OW      -0.834000       16.0000           0
     19802 TIP3     2624     TP3      H1       HW       0.417000       1.00800           0
     19803 TIP3     2624     TP3      H2       HW       0.417000       1.00800           0
     19804 TIP3     2625     TP3      O        OW      -0.834000       16.0000           0
     19805 TIP3     2625     TP3      H1       HW       0.417000       1.00800           0
     19806 TIP3     2625     TP3      H2       HW       0.417000       1.00800           0
     19807 TIP3     2626     TP3      O        OW      -0.834000       16.0000           0
     19808 TIP3     2626     TP3      H1       HW       0.417000       1.00800           0
     19809 TIP3     2626     TP3      H2       HW       0.417000       1.00800           0
     19810 TIP3     2627     TP3      O        OW      -0.834000       16.0000           0
     19811 TIP3     2627     TP3      H1       HW       0.417000       1.00800           0
     19812 TIP3     2627     TP3      H2       HW       0.417000       1.00800           0
     19813 TIP3     2628     TP3      O        OW      -0.834000       16.0000           0
     19814 TIP3     2628     TP3      H1       HW       0.417000       1.00800           0
     19815 TIP3     2628     TP3      H2       HW       0.417000       1.00800           0
     19816 TIP3     2629     TP3      O        OW      -0.834000       16.0000           0
     19817 TIP3     2629     TP3      H1       HW       0.417000       1.00800           0
     19818 TIP3     2629     TP3      H2       HW       0.417000       1.00800           0
     19819 TIP3     2630     TP3      O        OW      -0.834000       16.0000           0
     19820 TIP3     2630     TP3      H1       HW       0.417000       1.00800           0
     19821 TIP3     2630     TP3      H2       HW       0.417000       1.00800           0
     19822 TIP3     2631     TP3      O        OW      -0.834000       16.0000           0
     19823 TIP3     2631     TP3      H1       HW       0.417000       1.00800           0
     19824 TIP3     2631     TP3      H2       HW       0.417000       1.00800           0
     19825 TIP3     2632     TP3      O        OW      -0.834000       16.0000           0
     19826 TIP3     2632     TP3      H1       HW       0.417000       1.00800           0
     19827 TIP3     2632     TP3      H2       HW       0.417000       1.00800           0
     19828 TIP3     2633     TP3      O        OW      -0.834000       16.0000           0
     19829 TIP3     2633     TP3      H1       HW       0.417000       1.00800           0
     19830 TIP3     2633     TP3      H2       HW       0.417000       1.00800           0
     19831 TIP3     2634     TP3      O        OW      -0.834000       16.0000           0
     19832 TIP3     2634     TP3      H1       HW       0.417000       1.00800           0
     19833 TIP3     2634     TP3      H2       HW       0.417000       1.00800           0
     19834 TIP3     2635     TP3      O        OW      -0.834000       16.0000           0
     19835 TIP3     2635     TP3      H1       HW       0.417000       1.00800           0
     19836 TIP3     2635     TP3      H2       HW       0.417000       1.00800           0
     19837 TIP3     2636     TP3      O        OW      -0.834000       16.0000           0
     19838 TIP3     2636     TP3      H1       HW       0.417000       1.00800           0
     19839 TIP3     2636     TP3      H2       HW       0.417000       1.00800           0
     19840 TIP3     2637     TP3      O        OW      -0.834000       16.0000           0
     19841 TIP3     2637     TP3      H1       HW       0.417000       1.00800           0
     19842 TIP3     2637     TP3      H2       HW       0.417000       1.00800           0
     19843 TIP3     2638     TP3      O        OW      -0.834000       16.0000           0
     19844 TIP3     2638     TP3      H1       HW       0.417000       1.00800           0
     19845 TIP3     2638     TP3      H2       HW       0.417000       1.00800           0
     19846 TIP3     2639     TP3      O        OW      -0.834000       16.0000           0
     19847 TIP3     2639     TP3      H1       HW       0.417000       1.00800           0
     19848 TIP3     2639     TP3      H2       HW       0.417000       1.00800           0
     19849 TIP3     2640     TP3      O        OW      -0.834000       16.0000           0
     19850 TIP3     2640     TP3      H1       HW       0.417000       1.00800           0
     19851 TIP3     2640     TP3      H2       HW       0.417000       1.00800           0
     19852 TIP3     2641     TP3      O        OW      -0.834000       16.0000           0
     19853 TIP3     2641     TP3      H1       HW       0.417000       1.00800           0
     19854 TIP3     2641     TP3      H2       HW       0.417000       1.00800           0
     19855 TIP3     2642     TP3      O        OW      -0.834000       16.0000           0
     19856 TIP3     2642     TP3      H1       HW       0.417000       1.00800           0
     19857 TIP3     2642     TP3      H2       HW       0.417000       1.00800           0
     19858 TIP3     2643     TP3      O        OW      -0.834000       16.0000           0
     19859 TIP3     2643     TP3      H1       HW       0.417000       1.00800           0
     19860 TIP3     2643     TP3      H2       HW       0.417000       1.00800           0
     19861 TIP3     2644     TP3      O        OW      -0.834000       16.0000           0
     19862 TIP3     2644     TP3      H1       HW       0.417000       1.00800           0
     19863 TIP3     2644     TP3      H2       HW       0.417000       1.00800           0
     19864 TIP3     2645     TP3      O        OW      -0.834000       16.0000           0
     19865 TIP3     2645     TP3      H1       HW       0.417000       1.00800           0
     19866 TIP3     2645     TP3      H2       HW       0.417000       1.00800           0
     19867 TIP3     2646     TP3      O        OW      -0.834000       16.0000           0
     19868 TIP3     2646     TP3      H1       HW       0.417000       1.00800           0
     19869 TIP3     2646     TP3      H2       HW       0.417000       1.00800           0
     19870 TIP3     2647     TP3      O        OW      -0.834000       16.0000           0
     19871 TIP3     2647     TP3      H1       HW       0.417000       1.00800           0
     19872 TIP3     2647     TP3      H2       HW       0.417000       1.00800           0
     19873 TIP3     2648     TP3      O        OW      -0.834000       16.0000           0
     19874 TIP3     2648     TP3      H1       HW       0.417000       1.00800           0
     19875 TIP3     2648     TP3      H2       HW       0.417000       1.00800           0
     19876 TIP3     2649     TP3      O        OW      -0.834000       16.0000           0
     19877 TIP3     2649     TP3      H1       HW       0.417000       1.00800           0
     19878 TIP3     2649     TP3      H2       HW       0.417000       1.00800           0
     19879 TIP3     2650     TP3      O        OW      -0.834000       16.0000           0
     19880 TIP3     2650     TP3      H1       HW       0.417000       1.00800           0
     19881 TIP3     2650     TP3      H2       HW       0.417000       1.00800           0
     19882 TIP3     2651     TP3      O        OW      -0.834000       16.0000           0
     19883 TIP3     2651     TP3      H1       HW       0.417000       1.00800           0
     19884 TIP3     2651     TP3      H2       HW       0.417000       1.00800           0
     19885 TIP3     2652     TP3      O        OW      -0.834000       16.0000           0
     19886 TIP3     2652     TP3      H1       HW       0.417000       1.00800           0
     19887 TIP3     2652     TP3      H2       HW       0.417000       1.00800           0
     19888 TIP3     2653     TP3      O        OW      -0.834000       16.0000           0
     19889 TIP3     2653     TP3      H1       HW       0.417000       1.00800           0
     19890 TIP3     2653     TP3      H2       HW       0.417000       1.00800           0
     19891 TIP3     2654     TP3      O        OW      -0.834000       16.0000           0
     19892 TIP3     2654     TP3      H1       HW       0.417000       1.00800           0
     19893 TIP3     2654     TP3      H2       HW       0.417000       1.00800           0
     19894 TIP3     2655     TP3      O        OW      -0.834000       16.0000           0
     19895 TIP3     2655     TP3      H1       HW       0.417000       1.00800           0
     19896 TIP3     2655     TP3      H2       HW       0.417000       1.00800           0
     19897 TIP3     2656     TP3      O        OW      -0.834000       16.0000           0
     19898 TIP3     2656     TP3      H1       HW       0.417000       1.00800           0
     19899 TIP3     2656     TP3      H2       HW       0.417000       1.00800           0
     19900 TIP3     2657     TP3      O        OW      -0.834000       16.0000           0
     19901 TIP3     2657     TP3      H1       HW       0.417000       1.00800           0
     19902 TIP3     2657     TP3      H2       HW       0.417000       1.00800           0
     19903 TIP3     2658     TP3      O        OW      -0.834000       16.0000           0
     19904 TIP3     2658     TP3      H1       HW       0.417000       1.00800           0
     19905 TIP3     2658     TP3      H2       HW       0.417000       1.00800           0
     19906 TIP3     2659     TP3      O        OW      -0.834000       16.0000           0
     19907 TIP3     2659     TP3      H1       HW       0.417000       1.00800           0
     19908 TIP3     2659     TP3      H2       HW       0.417000       1.00800           0
     19909 TIP3     2660     TP3      O        OW      -0.834000       16.0000           0
     19910 TIP3     2660     TP3      H1       HW       0.417000       1.00800           0
     19911 TIP3     2660     TP3      H2       HW       0.417000       1.00800           0
     19912 TIP3     2661     TP3      O        OW      -0.834000       16.0000           0
     19913 TIP3     2661     TP3      H1       HW       0.417000       1.00800           0
     19914 TIP3     2661     TP3      H2       HW       0.417000       1.00800           0
     19915 TIP3     2662     TP3      O        OW      -0.834000       16.0000           0
     19916 TIP3     2662     TP3      H1       HW       0.417000       1.00800           0
     19917 TIP3     2662     TP3      H2       HW       0.417000       1.00800           0
     19918 TIP3     2663     TP3      O        OW      -0.834000       16.0000           0
     19919 TIP3     2663     TP3      H1       HW       0.417000       1.00800           0
     19920 TIP3     2663     TP3      H2       HW       0.417000       1.00800           0
     19921 TIP3     2664     TP3      O        OW      -0.834000       16.0000           0
     19922 TIP3     2664     TP3      H1       HW       0.417000       1.00800           0
     19923 TIP3     2664     TP3      H2       HW       0.417000       1.00800           0
     19924 TIP3     2665     TP3      O        OW      -0.834000       16.0000           0
     19925 TIP3     2665     TP3      H1       HW       0.417000       1.00800           0
     19926 TIP3     2665     TP3      H2       HW       0.417000       1.00800           0
     19927 TIP3     2666     TP3      O        OW      -0.834000       16.0000           0
     19928 TIP3     2666     TP3      H1       HW       0.417000       1.00800           0
     19929 TIP3     2666     TP3      H2       HW       0.417000       1.00800           0
     19930 TIP3     2667     TP3      O        OW      -0.834000       16.0000           0
     19931 TIP3     2667     TP3      H1       HW       0.417000       1.00800           0
     19932 TIP3     2667     TP3      H2       HW       0.417000       1.00800           0
     19933 TIP3     2668     TP3      O        OW      -0.834000       16.0000           0
     19934 TIP3     2668     TP3      H1       HW       0.417000       1.00800           0
     19935 TIP3     2668     TP3      H2       HW       0.417000       1.00800           0
     19936 TIP3     2669     TP3      O        OW      -0.834000       16.0000           0
     19937 TIP3     2669     TP3      H1       HW       0.417000       1.00800           0
     19938 TIP3     2669     TP3      H2       HW       0.417000       1.00800           0
     19939 TIP3     2670     TP3      O        OW      -0.834000       16.0000           0
     19940 TIP3     2670     TP3      H1       HW       0.417000       1.00800           0
     19941 TIP3     2670     TP3      H2       HW       0.417000       1.00800           0
     19942 TIP3     2671     TP3      O        OW      -0.834000       16.0000           0
     19943 TIP3     2671     TP3      H1       HW       0.417000       1.00800           0
     19944 TIP3     2671     TP3      H2       HW       0.417000       1.00800           0
     19945 TIP3     2672     TP3      O        OW      -0.834000       16.0000           0
     19946 TIP3     2672     TP3      H1       HW       0.417000       1.00800           0
     19947 TIP3     2672     TP3      H2       HW       0.417000       1.00800           0
     19948 TIP3     2673     TP3      O        OW      -0.834000       16.0000           0
     19949 TIP3     2673     TP3      H1       HW       0.417000       1.00800           0
     19950 TIP3     2673     TP3      H2       HW       0.417000       1.00800           0
     19951 TIP3     2674     TP3      O        OW      -0.834000       16.0000           0
     19952 TIP3     2674     TP3      H1       HW       0.417000       1.00800           0
     19953 TIP3     2674     TP3      H2       HW       0.417000       1.00800           0
     19954 TIP3     2675     TP3      O        OW      -0.834000       16.0000           0
     19955 TIP3     2675     TP3      H1       HW       0.417000       1.00800           0
     19956 TIP3     2675     TP3      H2       HW       0.417000       1.00800           0
     19957 TIP3     2676     TP3      O        OW      -0.834000       16.0000           0
     19958 TIP3     2676     TP3      H1       HW       0.417000       1.00800           0
     19959 TIP3     2676     TP3      H2       HW       0.417000       1.00800           0
     19960 TIP3     2677     TP3      O        OW      -0.834000       16.0000           0
     19961 TIP3     2677     TP3      H1       HW       0.417000       1.00800           0
     19962 TIP3     2677     TP3      H2       HW       0.417000       1.00800           0
     19963 TIP3     2678     TP3      O        OW      -0.834000       16.0000           0
     19964 TIP3     2678     TP3      H1       HW       0.417000       1.00800           0
     19965 TIP3     2678     TP3      H2       HW       0.417000       1.00800           0
     19966 TIP3     2679     TP3      O        OW      -0.834000       16.0000           0
     19967 TIP3     2679     TP3      H1       HW       0.417000       1.00800           0
     19968 TIP3     2679     TP3      H2       HW       0.417000       1.00800           0
     19969 TIP3     2680     TP3      O        OW      -0.834000       16.0000           0
     19970 TIP3     2680     TP3      H1       HW       0.417000       1.00800           0
     19971 TIP3     2680     TP3      H2       HW       0.417000       1.00800           0
     19972 TIP3     2681     TP3      O        OW      -0.834000       16.0000           0
     19973 TIP3     2681     TP3      H1       HW       0.417000       1.00800           0
     19974 TIP3     2681     TP3      H2       HW       0.417000       1.00800           0
     19975 TIP3     2682     TP3      O        OW      -0.834000       16.0000           0
     19976 TIP3     2682     TP3      H1       HW       0.417000       1.00800           0
     19977 TIP3     2682     TP3      H2       HW       0.417000       1.00800           0
     19978 TIP3     2683     TP3      O        OW      -0.834000       16.0000           0
     19979 TIP3     2683     TP3      H1       HW       0.417000       1.00800           0
     19980 TIP3     2683     TP3      H2       HW       0.417000       1.00800           0
     19981 TIP3     2684     TP3      O        OW      -0.834000       16.0000           0
     19982 TIP3     2684     TP3      H1       HW       0.417000       1.00800           0
     19983 TIP3     2684     TP3      H2       HW       0.417000       1.00800           0
     19984 TIP3     2685     TP3      O        OW      -0.834000       16.0000           0
     19985 TIP3     2685     TP3      H1       HW       0.417000       1.00800           0
     19986 TIP3     2685     TP3      H2       HW       0.417000       1.00800           0
     19987 TIP3     2686     TP3      O        OW      -0.834000       16.0000           0
     19988 TIP3     2686     TP3      H1       HW       0.417000       1.00800           0
     19989 TIP3     2686     TP3      H2       HW       0.417000       1.00800           0
     19990 TIP3     2687     TP3      O        OW      -0.834000       16.0000           0
     19991 TIP3     2687     TP3      H1       HW       0.417000       1.00800           0
     19992 TIP3     2687     TP3      H2       HW       0.417000       1.00800           0
     19993 TIP3     2688     TP3      O        OW      -0.834000       16.0000           0
     19994 TIP3     2688     TP3      H1       HW       0.417000       1.00800           0
     19995 TIP3     2688     TP3      H2       HW       0.417000       1.00800           0
     19996 TIP3     2689     TP3      O        OW      -0.834000       16.0000           0
     19997 TIP3     2689     TP3      H1       HW       0.417000       1.00800           0
     19998 TIP3     2689     TP3      H2       HW       0.417000       1.00800           0
     19999 TIP3     2690     TP3      O        OW      -0.834000       16.0000           0
     20000 TIP3     2690     TP3      H1       HW       0.417000       1.00800           0
     20001 TIP3     2690     TP3      H2       HW       0.417000       1.00800           0
     20002 TIP3     2691     TP3      O        OW      -0.834000       16.0000           0
     20003 TIP3     2691     TP3      H1       HW       0.417000       1.00800           0
     20004 TIP3     2691     TP3      H2       HW       0.417000       1.00800           0
     20005 TIP3     2692     TP3      O        OW      -0.834000       16.0000           0
     20006 TIP3     2692     TP3      H1       HW       0.417000       1.00800           0
     20007 TIP3     2692     TP3      H2       HW       0.417000       1.00800           0
     20008 TIP3     2693     TP3      O        OW      -0.834000       16.0000           0
     20009 TIP3     2693     TP3      H1       HW       0.417000       1.00800           0
     20010 TIP3     2693     TP3      H2       HW       0.417000       1.00800           0
     20011 TIP3     2694     TP3      O        OW      -0.834000       16.0000           0
     20012 TIP3     2694     TP3      H1       HW       0.417000       1.00800           0
     20013 TIP3     2694     TP3      H2       HW       0.417000       1.00800           0
     20014 TIP3     2695     TP3      O        OW      -0.834000       16.0000           0
     20015 TIP3     2695     TP3      H1       HW       0.417000       1.00800           0
     20016 TIP3     2695     TP3      H2       HW       0.417000       1.00800           0
     20017 TIP3     2696     TP3      O        OW      -0.834000       16.0000           0
     20018 TIP3     2696     TP3      H1       HW       0.417000       1.00800           0
     20019 TIP3     2696     TP3      H2       HW       0.417000       1.00800           0
     20020 TIP3     2697     TP3      O        OW      -0.834000       16.0000           0
     20021 TIP3     2697     TP3      H1       HW       0.417000       1.00800           0
     20022 TIP3     2697     TP3      H2       HW       0.417000       1.00800           0
     20023 TIP3     2698     TP3      O        OW      -0.834000       16.0000           0
     20024 TIP3     2698     TP3      H1       HW       0.417000       1.00800           0
     20025 TIP3     2698     TP3      H2       HW       0.417000       1.00800           0
     20026 TIP3     2699     TP3      O        OW      -0.834000       16.0000           0
     20027 TIP3     2699     TP3      H1       HW       0.417000       1.00800           0
     20028 TIP3     2699     TP3      H2       HW       0.417000       1.00800           0
     20029 TIP3     2700     TP3      O        OW      -0.834000       16.0000           0
     20030 TIP3     2700     TP3      H1       HW       0.417000       1.00800           0
     20031 TIP3     2700     TP3      H2       HW       0.417000       1.00800           0
     20032 TIP3     2701     TP3      O        OW      -0.834000       16.0000           0
     20033 TIP3     2701     TP3      H1       HW       0.417000       1.00800           0
     20034 TIP3     2701     TP3      H2       HW       0.417000       1.00800           0
     20035 TIP3     2702     TP3      O        OW      -0.834000       16.0000           0
     20036 TIP3     2702     TP3      H1       HW       0.417000       1.00800           0
     20037 TIP3     2702     TP3      H2       HW       0.417000       1.00800           0
     20038 TIP3     2703     TP3      O        OW      -0.834000       16.0000           0
     20039 TIP3     2703     TP3      H1       HW       0.417000       1.00800           0
     20040 TIP3     2703     TP3      H2       HW       0.417000       1.00800           0
     20041 TIP3     2704     TP3      O        OW      -0.834000       16.0000           0
     20042 TIP3     2704     TP3      H1       HW       0.417000       1.00800           0
     20043 TIP3     2704     TP3      H2       HW       0.417000       1.00800           0
     20044 TIP3     2705     TP3      O        OW      -0.834000       16.0000           0
     20045 TIP3     2705     TP3      H1       HW       0.417000       1.00800           0
     20046 TIP3     2705     TP3      H2       HW       0.417000       1.00800           0
     20047 TIP3     2706     TP3      O        OW      -0.834000       16.0000           0
     20048 TIP3     2706     TP3      H1       HW       0.417000       1.00800           0
     20049 TIP3     2706     TP3      H2       HW       0.417000       1.00800           0
     20050 TIP3     2707     TP3      O        OW      -0.834000       16.0000           0
     20051 TIP3     2707     TP3      H1       HW       0.417000       1.00800           0
     20052 TIP3     2707     TP3      H2       HW       0.417000       1.00800           0
     20053 TIP3     2708     TP3      O        OW      -0.834000       16.0000           0
     20054 TIP3     2708     TP3      H1       HW       0.417000       1.00800           0
     20055 TIP3     2708     TP3      H2       HW       0.417000       1.00800           0
     20056 TIP3     2709     TP3      O        OW      -0.834000       16.0000           0
     20057 TIP3     2709     TP3      H1       HW       0.417000       1.00800           0
     20058 TIP3     2709     TP3      H2       HW       0.417000       1.00800           0
     20059 TIP3     2710     TP3      O        OW      -0.834000       16.0000           0
     20060 TIP3     2710     TP3      H1       HW       0.417000       1.00800           0
     20061 TIP3     2710     TP3      H2       HW       0.417000       1.00800           0
     20062 TIP3     2711     TP3      O        OW      -0.834000       16.0000           0
     20063 TIP3     2711     TP3      H1       HW       0.417000       1.00800           0
     20064 TIP3     2711     TP3      H2       HW       0.417000       1.00800           0
     20065 TIP3     2712     TP3      O        OW      -0.834000       16.0000           0
     20066 TIP3     2712     TP3      H1       HW       0.417000       1.00800           0
     20067 TIP3     2712     TP3      H2       HW       0.417000       1.00800           0
     20068 TIP3     2713     TP3      O        OW      -0.834000       16.0000           0
     20069 TIP3     2713     TP3      H1       HW       0.417000       1.00800           0
     20070 TIP3     2713     TP3      H2       HW       0.417000       1.00800           0
     20071 TIP3     2714     TP3      O        OW      -0.834000       16.0000           0
     20072 TIP3     2714     TP3      H1       HW       0.417000       1.00800           0
     20073 TIP3     2714     TP3      H2       HW       0.417000       1.00800           0
     20074 TIP3     2715     TP3      O        OW      -0.834000       16.0000           0
     20075 TIP3     2715     TP3      H1       HW       0.417000       1.00800           0
     20076 TIP3     2715     TP3      H2       HW       0.417000       1.00800           0
     20077 TIP3     2716     TP3      O        OW      -0.834000       16.0000           0
     20078 TIP3     2716     TP3      H1       HW       0.417000       1.00800           0
     20079 TIP3     2716     TP3      H2       HW       0.417000       1.00800           0
     20080 TIP3     2717     TP3      O        OW      -0.834000       16.0000           0
     20081 TIP3     2717     TP3      H1       HW       0.417000       1.00800           0
     20082 TIP3     2717     TP3      H2       HW       0.417000       1.00800           0
     20083 TIP3     2718     TP3      O        OW      -0.834000       16.0000           0
     20084 TIP3     2718     TP3      H1       HW       0.417000       1.00800           0
     20085 TIP3     2718     TP3      H2       HW       0.417000       1.00800           0
     20086 TIP3     2719     TP3      O        OW      -0.834000       16.0000           0
     20087 TIP3     2719     TP3      H1       HW       0.417000       1.00800           0
     20088 TIP3     2719     TP3      H2       HW       0.417000       1.00800           0
     20089 TIP3     2720     TP3      O        OW      -0.834000       16.0000           0
     20090 TIP3     2720     TP3      H1       HW       0.417000       1.00800           0
     20091 TIP3     2720     TP3      H2       HW       0.417000       1.00800           0
     20092 TIP3     2721     TP3      O        OW      -0.834000       16.0000           0
     20093 TIP3     2721     TP3      H1       HW       0.417000       1.00800           0
     20094 TIP3     2721     TP3      H2       HW       0.417000       1.00800           0
     20095 TIP3     2722     TP3      O        OW      -0.834000       16.0000           0
     20096 TIP3     2722     TP3      H1       HW       0.417000       1.00800           0
     20097 TIP3     2722     TP3      H2       HW       0.417000       1.00800           0
     20098 TIP3     2723     TP3      O        OW      -0.834000       16.0000           0
     20099 TIP3     2723     TP3      H1       HW       0.417000       1.00800           0
     20100 TIP3     2723     TP3      H2       HW       0.417000       1.00800           0
     20101 TIP3     2724     TP3      O        OW      -0.834000       16.0000           0
     20102 TIP3     2724     TP3      H1       HW       0.417000       1.00800           0
     20103 TIP3     2724     TP3      H2       HW       0.417000       1.00800           0
     20104 TIP3     2725     TP3      O        OW      -0.834000       16.0000           0
     20105 TIP3     2725     TP3      H1       HW       0.417000       1.00800           0
     20106 TIP3     2725     TP3      H2       HW       0.417000       1.00800           0
     20107 TIP3     2726     TP3      O        OW      -0.834000       16.0000           0
     20108 TIP3     2726     TP3      H1       HW       0.417000       1.00800           0
     20109 TIP3     2726     TP3      H2       HW       0.417000       1.00800           0
     20110 TIP3     2727     TP3      O        OW      -0.834000       16.0000           0
     20111 TIP3     2727     TP3      H1       HW       0.417000       1.00800           0
     20112 TIP3     2727     TP3      H2       HW       0.417000       1.00800           0
     20113 TIP3     2728     TP3      O        OW      -0.834000       16.0000           0
     20114 TIP3     2728     TP3      H1       HW       0.417000       1.00800           0
     20115 TIP3     2728     TP3      H2       HW       0.417000       1.00800           0
     20116 TIP3     2729     TP3      O        OW      -0.834000       16.0000           0
     20117 TIP3     2729     TP3      H1       HW       0.417000       1.00800           0
     20118 TIP3     2729     TP3      H2       HW       0.417000       1.00800           0
     20119 TIP3     2730     TP3      O        OW      -0.834000       16.0000           0
     20120 TIP3     2730     TP3      H1       HW       0.417000       1.00800           0
     20121 TIP3     2730     TP3      H2       HW       0.417000       1.00800           0
     20122 TIP3     2731     TP3      O        OW      -0.834000       16.0000           0
     20123 TIP3     2731     TP3      H1       HW       0.417000       1.00800           0
     20124 TIP3     2731     TP3      H2       HW       0.417000       1.00800           0
     20125 TIP3     2732     TP3      O        OW      -0.834000       16.0000           0
     20126 TIP3     2732     TP3      H1       HW       0.417000       1.00800           0
     20127 TIP3     2732     TP3      H2       HW       0.417000       1.00800           0
     20128 TIP3     2733     TP3      O        OW      -0.834000       16.0000           0
     20129 TIP3     2733     TP3      H1       HW       0.417000       1.00800           0
     20130 TIP3     2733     TP3      H2       HW       0.417000       1.00800           0
     20131 TIP3     2734     TP3      O        OW      -0.834000       16.0000           0
     20132 TIP3     2734     TP3      H1       HW       0.417000       1.00800           0
     20133 TIP3     2734     TP3      H2       HW       0.417000       1.00800           0
     20134 TIP3     2735     TP3      O        OW      -0.834000       16.0000           0
     20135 TIP3     2735     TP3      H1       HW       0.417000       1.00800           0
     20136 TIP3     2735     TP3      H2       HW       0.417000       1.00800           0
     20137 TIP3     2736     TP3      O        OW      -0.834000       16.0000           0
     20138 TIP3     2736     TP3      H1       HW       0.417000       1.00800           0
     20139 TIP3     2736     TP3      H2       HW       0.417000       1.00800           0
     20140 TIP3     2737     TP3      O        OW      -0.834000       16.0000           0
     20141 TIP3     2737     TP3      H1       HW       0.417000       1.00800           0
     20142 TIP3     2737     TP3      H2       HW       0.417000       1.00800           0
     20143 TIP3     2738     TP3      O        OW      -0.834000       16.0000           0
     20144 TIP3     2738     TP3      H1       HW       0.417000       1.00800           0
     20145 TIP3     2738     TP3      H2       HW       0.417000       1.00800           0
     20146 TIP3     2739     TP3      O        OW      -0.834000       16.0000           0
     20147 TIP3     2739     TP3      H1       HW       0.417000       1.00800           0
     20148 TIP3     2739     TP3      H2       HW       0.417000       1.00800           0
     20149 TIP3     2740     TP3      O        OW      -0.834000       16.0000           0
     20150 TIP3     2740     TP3      H1       HW       0.417000       1.00800           0
     20151 TIP3     2740     TP3      H2       HW       0.417000       1.00800           0
     20152 TIP3     2741     TP3      O        OW      -0.834000       16.0000           0
     20153 TIP3     2741     TP3      H1       HW       0.417000       1.00800           0
     20154 TIP3     2741     TP3      H2       HW       0.417000       1.00800           0
     20155 TIP3     2742     TP3      O        OW      -0.834000       16.0000           0
     20156 TIP3     2742     TP3      H1       HW       0.417000       1.00800           0
     20157 TIP3     2742     TP3      H2       HW       0.417000       1.00800           0
     20158 TIP3     2743     TP3      O        OW      -0.834000       16.0000           0
     20159 TIP3     2743     TP3      H1       HW       0.417000       1.00800           0
     20160 TIP3     2743     TP3      H2       HW       0.417000       1.00800           0
     20161 TIP3     2744     TP3      O        OW      -0.834000       16.0000           0
     20162 TIP3     2744     TP3      H1       HW       0.417000       1.00800           0
     20163 TIP3     2744     TP3      H2       HW       0.417000       1.00800           0
     20164 TIP3     2745     TP3      O        OW      -0.834000       16.0000           0
     20165 TIP3     2745     TP3      H1       HW       0.417000       1.00800           0
     20166 TIP3     2745     TP3      H2       HW       0.417000       1.00800           0
     20167 TIP3     2746     TP3      O        OW      -0.834000       16.0000           0
     20168 TIP3     2746     TP3      H1       HW       0.417000       1.00800           0
     20169 TIP3     2746     TP3      H2       HW       0.417000       1.00800           0
     20170 TIP3     2747     TP3      O        OW      -0.834000       16.0000           0
     20171 TIP3     2747     TP3      H1       HW       0.417000       1.00800           0
     20172 TIP3     2747     TP3      H2       HW       0.417000       1.00800           0
     20173 TIP3     2748     TP3      O        OW      -0.834000       16.0000           0
     20174 TIP3     2748     TP3      H1       HW       0.417000       1.00800           0
     20175 TIP3     2748     TP3      H2       HW       0.417000       1.00800           0
     20176 TIP3     2749     TP3      O        OW      -0.834000       16.0000           0
     20177 TIP3     2749     TP3      H1       HW       0.417000       1.00800           0
     20178 TIP3     2749     TP3      H2       HW       0.417000       1.00800           0
     20179 TIP3     2750     TP3      O        OW      -0.834000       16.0000           0
     20180 TIP3     2750     TP3      H1       HW       0.417000       1.00800           0
     20181 TIP3     2750     TP3      H2       HW       0.417000       1.00800           0
     20182 TIP3     2751     TP3      O        OW      -0.834000       16.0000           0
     20183 TIP3     2751     TP3      H1       HW       0.417000       1.00800           0
     20184 TIP3     2751     TP3      H2       HW       0.417000       1.00800           0
     20185 TIP3     2752     TP3      O        OW      -0.834000       16.0000           0
     20186 TIP3     2752     TP3      H1       HW       0.417000       1.00800           0
     20187 TIP3     2752     TP3      H2       HW       0.417000       1.00800           0
     20188 TIP3     2753     TP3      O        OW      -0.834000       16.0000           0
     20189 TIP3     2753     TP3      H1       HW       0.417000       1.00800           0
     20190 TIP3     2753     TP3      H2       HW       0.417000       1.00800           0
     20191 TIP3     2754     TP3      O        OW      -0.834000       16.0000           0
     20192 TIP3     2754     TP3      H1       HW       0.417000       1.00800           0
     20193 TIP3     2754     TP3      H2       HW       0.417000       1.00800           0
     20194 TIP3     2755     TP3      O        OW      -0.834000       16.0000           0
     20195 TIP3     2755     TP3      H1       HW       0.417000       1.00800           0
     20196 TIP3     2755     TP3      H2       HW       0.417000       1.00800           0
     20197 TIP3     2756     TP3      O        OW      -0.834000       16.0000           0
     20198 TIP3     2756     TP3      H1       HW       0.417000       1.00800           0
     20199 TIP3     2756     TP3      H2       HW       0.417000       1.00800           0
     20200 TIP3     2757     TP3      O        OW      -0.834000       16.0000           0
     20201 TIP3     2757     TP3      H1       HW       0.417000       1.00800           0
     20202 TIP3     2757     TP3      H2       HW       0.417000       1.00800           0
     20203 TIP3     2758     TP3      O        OW      -0.834000       16.0000           0
     20204 TIP3     2758     TP3      H1       HW       0.417000       1.00800           0
     20205 TIP3     2758     TP3      H2       HW       0.417000       1.00800           0
     20206 TIP3     2759     TP3      O        OW      -0.834000       16.0000           0
     20207 TIP3     2759     TP3      H1       HW       0.417000       1.00800           0
     20208 TIP3     2759     TP3      H2       HW       0.417000       1.00800           0
     20209 TIP3     2760     TP3      O        OW      -0.834000       16.0000           0
     20210 TIP3     2760     TP3      H1       HW       0.417000       1.00800           0
     20211 TIP3     2760     TP3      H2       HW       0.417000       1.00800           0
     20212 TIP3     2761     TP3      O        OW      -0.834000       16.0000           0
     20213 TIP3     2761     TP3      H1       HW       0.417000       1.00800           0
     20214 TIP3     2761     TP3      H2       HW       0.417000       1.00800           0
     20215 TIP3     2762     TP3      O        OW      -0.834000       16.0000           0
     20216 TIP3     2762     TP3      H1       HW       0.417000       1.00800           0
     20217 TIP3     2762     TP3      H2       HW       0.417000       1.00800           0
     20218 TIP3     2763     TP3      O        OW      -0.834000       16.0000           0
     20219 TIP3     2763     TP3      H1       HW       0.417000       1.00800           0
     20220 TIP3     2763     TP3      H2       HW       0.417000       1.00800           0
     20221 TIP3     2764     TP3      O        OW      -0.834000       16.0000           0
     20222 TIP3     2764     TP3      H1       HW       0.417000       1.00800           0
     20223 TIP3     2764     TP3      H2       HW       0.417000       1.00800           0
     20224 TIP3     2765     TP3      O        OW      -0.834000       16.0000           0
     20225 TIP3     2765     TP3      H1       HW       0.417000       1.00800           0
     20226 TIP3     2765     TP3      H2       HW       0.417000       1.00800           0
     20227 TIP3     2766     TP3      O        OW      -0.834000       16.0000           0
     20228 TIP3     2766     TP3      H1       HW       0.417000       1.00800           0
     20229 TIP3     2766     TP3      H2       HW       0.417000       1.00800           0
     20230 TIP3     2767     TP3      O        OW      -0.834000       16.0000           0
     20231 TIP3     2767     TP3      H1       HW       0.417000       1.00800           0
     20232 TIP3     2767     TP3      H2       HW       0.417000       1.00800           0
     20233 TIP3     2768     TP3      O        OW      -0.834000       16.0000           0
     20234 TIP3     2768     TP3      H1       HW       0.417000       1.00800           0
     20235 TIP3     2768     TP3      H2       HW       0.417000       1.00800           0
     20236 TIP3     2769     TP3      O        OW      -0.834000       16.0000           0
     20237 TIP3     2769     TP3      H1       HW       0.417000       1.00800           0
     20238 TIP3     2769     TP3      H2       HW       0.417000       1.00800           0
     20239 TIP3     2770     TP3      O        OW      -0.834000       16.0000           0
     20240 TIP3     2770     TP3      H1       HW       0.417000       1.00800           0
     20241 TIP3     2770     TP3      H2       HW       0.417000       1.00800           0
     20242 TIP3     2771     TP3      O        OW      -0.834000       16.0000           0
     20243 TIP3     2771     TP3      H1       HW       0.417000       1.00800           0
     20244 TIP3     2771     TP3      H2       HW       0.417000       1.00800           0
     20245 TIP3     2772     TP3      O        OW      -0.834000       16.0000           0
     20246 TIP3     2772     TP3      H1       HW       0.417000       1.00800           0
     20247 TIP3     2772     TP3      H2       HW       0.417000       1.00800           0
     20248 TIP3     2773     TP3      O        OW      -0.834000       16.0000           0
     20249 TIP3     2773     TP3      H1       HW       0.417000       1.00800           0
     20250 TIP3     2773     TP3      H2       HW       0.417000       1.00800           0
     20251 TIP3     2774     TP3      O        OW      -0.834000       16.0000           0
     20252 TIP3     2774     TP3      H1       HW       0.417000       1.00800           0
     20253 TIP3     2774     TP3      H2       HW       0.417000       1.00800           0
     20254 TIP3     2775     TP3      O        OW      -0.834000       16.0000           0
     20255 TIP3     2775     TP3      H1       HW       0.417000       1.00800           0
     20256 TIP3     2775     TP3      H2       HW       0.417000       1.00800           0
     20257 TIP3     2776     TP3      O        OW      -0.834000       16.0000           0
     20258 TIP3     2776     TP3      H1       HW       0.417000       1.00800           0
     20259 TIP3     2776     TP3      H2       HW       0.417000       1.00800           0
     20260 TIP3     2777     TP3      O        OW      -0.834000       16.0000           0
     20261 TIP3     2777     TP3      H1       HW       0.417000       1.00800           0
     20262 TIP3     2777     TP3      H2       HW       0.417000       1.00800           0
     20263 TIP3     2778     TP3      O        OW      -0.834000       16.0000           0
     20264 TIP3     2778     TP3      H1       HW       0.417000       1.00800           0
     20265 TIP3     2778     TP3      H2       HW       0.417000       1.00800           0
     20266 TIP3     2779     TP3      O        OW      -0.834000       16.0000           0
     20267 TIP3     2779     TP3      H1       HW       0.417000       1.00800           0
     20268 TIP3     2779     TP3      H2       HW       0.417000       1.00800           0
     20269 TIP3     2780     TP3      O        OW      -0.834000       16.0000           0
     20270 TIP3     2780     TP3      H1       HW       0.417000       1.00800           0
     20271 TIP3     2780     TP3      H2       HW       0.417000       1.00800           0
     20272 TIP3     2781     TP3      O        OW      -0.834000       16.0000           0
     20273 TIP3     2781     TP3      H1       HW       0.417000       1.00800           0
     20274 TIP3     2781     TP3      H2       HW       0.417000       1.00800           0
     20275 TIP3     2782     TP3      O        OW      -0.834000       16.0000           0
     20276 TIP3     2782     TP3      H1       HW       0.417000       1.00800           0
     20277 TIP3     2782     TP3      H2       HW       0.417000       1.00800           0
     20278 TIP3     2783     TP3      O        OW      -0.834000       16.0000           0
     20279 TIP3     2783     TP3      H1       HW       0.417000       1.00800           0
     20280 TIP3     2783     TP3      H2       HW       0.417000       1.00800           0
     20281 TIP3     2784     TP3      O        OW      -0.834000       16.0000           0
     20282 TIP3     2784     TP3      H1       HW       0.417000       1.00800           0
     20283 TIP3     2784     TP3      H2       HW       0.417000       1.00800           0
     20284 TIP3     2785     TP3      O        OW      -0.834000       16.0000           0
     20285 TIP3     2785     TP3      H1       HW       0.417000       1.00800           0
     20286 TIP3     2785     TP3      H2       HW       0.417000       1.00800           0
     20287 TIP3     2786     TP3      O        OW      -0.834000       16.0000           0
     20288 TIP3     2786     TP3      H1       HW       0.417000       1.00800           0
     20289 TIP3     2786     TP3      H2       HW       0.417000       1.00800           0
     20290 TIP3     2787     TP3      O        OW      -0.834000       16.0000           0
     20291 TIP3     2787     TP3      H1       HW       0.417000       1.00800           0
     20292 TIP3     2787     TP3      H2       HW       0.417000       1.00800           0
     20293 TIP3     2788     TP3      O        OW      -0.834000       16.0000           0
     20294 TIP3     2788     TP3      H1       HW       0.417000       1.00800           0
     20295 TIP3     2788     TP3      H2       HW       0.417000       1.00800           0
     20296 TIP3     2789     TP3      O        OW      -0.834000       16.0000           0
     20297 TIP3     2789     TP3      H1       HW       0.417000       1.00800           0
     20298 TIP3     2789     TP3      H2       HW       0.417000       1.00800           0
     20299 TIP3     2790     TP3      O        OW      -0.834000       16.0000           0
     20300 TIP3     2790     TP3      H1       HW       0.417000       1.00800           0
     20301 TIP3     2790     TP3      H2       HW       0.417000       1.00800           0
     20302 TIP3     2791     TP3      O        OW      -0.834000       16.0000           0
     20303 TIP3     2791     TP3      H1       HW       0.417000       1.00800           0
     20304 TIP3     2791     TP3      H2       HW       0.417000       1.00800           0
     20305 TIP3     2792     TP3      O        OW      -0.834000       16.0000           0
     20306 TIP3     2792     TP3      H1       HW       0.417000       1.00800           0
     20307 TIP3     2792     TP3      H2       HW       0.417000       1.00800           0
     20308 TIP3     2793     TP3      O        OW      -0.834000       16.0000           0
     20309 TIP3     2793     TP3      H1       HW       0.417000       1.00800           0
     20310 TIP3     2793     TP3      H2       HW       0.417000       1.00800           0
     20311 TIP3     2794     TP3      O        OW      -0.834000       16.0000           0
     20312 TIP3     2794     TP3      H1       HW       0.417000       1.00800           0
     20313 TIP3     2794     TP3      H2       HW       0.417000       1.00800           0
     20314 TIP3     2795     TP3      O        OW      -0.834000       16.0000           0
     20315 TIP3     2795     TP3      H1       HW       0.417000       1.00800           0
     20316 TIP3     2795     TP3      H2       HW       0.417000       1.00800           0
     20317 TIP3     2796     TP3      O        OW      -0.834000       16.0000           0
     20318 TIP3     2796     TP3      H1       HW       0.417000       1.00800           0
     20319 TIP3     2796     TP3      H2       HW       0.417000       1.00800           0
     20320 TIP3     2797     TP3      O        OW      -0.834000       16.0000           0
     20321 TIP3     2797     TP3      H1       HW       0.417000       1.00800           0
     20322 TIP3     2797     TP3      H2       HW       0.417000       1.00800           0
     20323 TIP3     2798     TP3      O        OW      -0.834000       16.0000           0
     20324 TIP3     2798     TP3      H1       HW       0.417000       1.00800           0
     20325 TIP3     2798     TP3      H2       HW       0.417000       1.00800           0
     20326 TIP3     2799     TP3      O        OW      -0.834000       16.0000           0
     20327 TIP3     2799     TP3      H1       HW       0.417000       1.00800           0
     20328 TIP3     2799     TP3      H2       HW       0.417000       1.00800           0
     20329 TIP3     2800     TP3      O        OW      -0.834000       16.0000           0
     20330 TIP3     2800     TP3      H1       HW       0.417000       1.00800           0
     20331 TIP3     2800     TP3      H2       HW       0.417000       1.00800           0
     20332 TIP3     2801     TP3      O        OW      -0.834000       16.0000           0
     20333 TIP3     2801     TP3      H1       HW       0.417000       1.00800           0
     20334 TIP3     2801     TP3      H2       HW       0.417000       1.00800           0
     20335 TIP3     2802     TP3      O        OW      -0.834000       16.0000           0
     20336 TIP3     2802     TP3      H1       HW       0.417000       1.00800           0
     20337 TIP3     2802     TP3      H2       HW       0.417000       1.00800           0
     20338 TIP3     2803     TP3      O        OW      -0.834000       16.0000           0
     20339 TIP3     2803     TP3      H1       HW       0.417000       1.00800           0
     20340 TIP3     2803     TP3      H2       HW       0.417000       1.00800           0
     20341 TIP3     2804     TP3      O        OW      -0.834000       16.0000           0
     20342 TIP3     2804     TP3      H1       HW       0.417000       1.00800           0
     20343 TIP3     2804     TP3      H2       HW       0.417000       1.00800           0
     20344 TIP3     2805     TP3      O        OW      -0.834000       16.0000           0
     20345 TIP3     2805     TP3      H1       HW       0.417000       1.00800           0
     20346 TIP3     2805     TP3      H2       HW       0.417000       1.00800           0
     20347 TIP3     2806     TP3      O        OW      -0.834000       16.0000           0
     20348 TIP3     2806     TP3      H1       HW       0.417000       1.00800           0
     20349 TIP3     2806     TP3      H2       HW       0.417000       1.00800           0
     20350 TIP3     2807     TP3      O        OW      -0.834000       16.0000           0
     20351 TIP3     2807     TP3      H1       HW       0.417000       1.00800           0
     20352 TIP3     2807     TP3      H2       HW       0.417000       1.00800           0
     20353 TIP3     2808     TP3      O        OW      -0.834000       16.0000           0
     20354 TIP3     2808     TP3      H1       HW       0.417000       1.00800           0
     20355 TIP3     2808     TP3      H2       HW       0.417000       1.00800           0
     20356 TIP3     2809     TP3      O        OW      -0.834000       16.0000           0
     20357 TIP3     2809     TP3      H1       HW       0.417000       1.00800           0
     20358 TIP3     2809     TP3      H2       HW       0.417000       1.00800           0
     20359 TIP3     2810     TP3      O        OW      -0.834000       16.0000           0
     20360 TIP3     2810     TP3      H1       HW       0.417000       1.00800           0
     20361 TIP3     2810     TP3      H2       HW       0.417000       1.00800           0
     20362 TIP3     2811     TP3      O        OW      -0.834000       16.0000           0
     20363 TIP3     2811     TP3      H1       HW       0.417000       1.00800           0
     20364 TIP3     2811     TP3      H2       HW       0.417000       1.00800           0
     20365 TIP3     2812     TP3      O        OW      -0.834000       16.0000           0
     20366 TIP3     2812     TP3      H1       HW       0.417000       1.00800           0
     20367 TIP3     2812     TP3      H2       HW       0.417000       1.00800           0
     20368 TIP3     2813     TP3      O        OW      -0.834000       16.0000           0
     20369 TIP3     2813     TP3      H1       HW       0.417000       1.00800           0
     20370 TIP3     2813     TP3      H2       HW       0.417000       1.00800           0
     20371 TIP3     2814     TP3      O        OW      -0.834000       16.0000           0
     20372 TIP3     2814     TP3      H1       HW       0.417000       1.00800           0
     20373 TIP3     2814     TP3      H2       HW       0.417000       1.00800           0
     20374 TIP3     2815     TP3      O        OW      -0.834000       16.0000           0
     20375 TIP3     2815     TP3      H1       HW       0.417000       1.00800           0
     20376 TIP3     2815     TP3      H2       HW       0.417000       1.00800           0
     20377 TIP3     2816     TP3      O        OW      -0.834000       16.0000           0
     20378 TIP3     2816     TP3      H1       HW       0.417000       1.00800           0
     20379 TIP3     2816     TP3      H2       HW       0.417000       1.00800           0
     20380 TIP3     2817     TP3      O        OW      -0.834000       16.0000           0
     20381 TIP3     2817     TP3      H1       HW       0.417000       1.00800           0
     20382 TIP3     2817     TP3      H2       HW       0.417000       1.00800           0
     20383 TIP3     2818     TP3      O        OW      -0.834000       16.0000           0
     20384 TIP3     2818     TP3      H1       HW       0.417000       1.00800           0
     20385 TIP3     2818     TP3      H2       HW       0.417000       1.00800           0
     20386 TIP3     2819     TP3      O        OW      -0.834000       16.0000           0
     20387 TIP3     2819     TP3      H1       HW       0.417000       1.00800           0
     20388 TIP3     2819     TP3      H2       HW       0.417000       1.00800           0
     20389 TIP3     2820     TP3      O        OW      -0.834000       16.0000           0
     20390 TIP3     2820     TP3      H1       HW       0.417000       1.00800           0
     20391 TIP3     2820     TP3      H2       HW       0.417000       1.00800           0
     20392 TIP3     2821     TP3      O        OW      -0.834000       16.0000           0
     20393 TIP3     2821     TP3      H1       HW       0.417000       1.00800           0
     20394 TIP3     2821     TP3      H2       HW       0.417000       1.00800           0
     20395 TIP3     2822     TP3      O        OW      -0.834000       16.0000           0
     20396 TIP3     2822     TP3      H1       HW       0.417000       1.00800           0
     20397 TIP3     2822     TP3      H2       HW       0.417000       1.00800           0
     20398 TIP3     2823     TP3      O        OW      -0.834000       16.0000           0
     20399 TIP3     2823     TP3      H1       HW       0.417000       1.00800           0
     20400 TIP3     2823     TP3      H2       HW       0.417000       1.00800           0
     20401 TIP3     2824     TP3      O        OW      -0.834000       16.0000           0
     20402 TIP3     2824     TP3      H1       HW       0.417000       1.00800           0
     20403 TIP3     2824     TP3      H2       HW       0.417000       1.00800           0
     20404 TIP3     2825     TP3      O        OW      -0.834000       16.0000           0
     20405 TIP3     2825     TP3      H1       HW       0.417000       1.00800           0
     20406 TIP3     2825     TP3      H2       HW       0.417000       1.00800           0
     20407 TIP3     2826     TP3      O        OW      -0.834000       16.0000           0
     20408 TIP3     2826     TP3      H1       HW       0.417000       1.00800           0
     20409 TIP3     2826     TP3      H2       HW       0.417000       1.00800           0
     20410 TIP3     2827     TP3      O        OW      -0.834000       16.0000           0
     20411 TIP3     2827     TP3      H1       HW       0.417000       1.00800           0
     20412 TIP3     2827     TP3      H2       HW       0.417000       1.00800           0
     20413 TIP3     2828     TP3      O        OW      -0.834000       16.0000           0
     20414 TIP3     2828     TP3      H1       HW       0.417000       1.00800           0
     20415 TIP3     2828     TP3      H2       HW       0.417000       1.00800           0
     20416 TIP3     2829     TP3      O        OW      -0.834000       16.0000           0
     20417 TIP3     2829     TP3      H1       HW       0.417000       1.00800           0
     20418 TIP3     2829     TP3      H2       HW       0.417000       1.00800           0
     20419 TIP3     2830     TP3      O        OW      -0.834000       16.0000           0
     20420 TIP3     2830     TP3      H1       HW       0.417000       1.00800           0
     20421 TIP3     2830     TP3      H2       HW       0.417000       1.00800           0
     20422 TIP3     2831     TP3      O        OW      -0.834000       16.0000           0
     20423 TIP3     2831     TP3      H1       HW       0.417000       1.00800           0
     20424 TIP3     2831     TP3      H2       HW       0.417000       1.00800           0
     20425 TIP3     2832     TP3      O        OW      -0.834000       16.0000           0
     20426 TIP3     2832     TP3      H1       HW       0.417000       1.00800           0
     20427 TIP3     2832     TP3      H2       HW       0.417000       1.00800           0
     20428 TIP3     2833     TP3      O        OW      -0.834000       16.0000           0
     20429 TIP3     2833     TP3      H1       HW       0.417000       1.00800           0
     20430 TIP3     2833     TP3      H2       HW       0.417000       1.00800           0
     20431 TIP3     2834     TP3      O        OW      -0.834000       16.0000           0
     20432 TIP3     2834     TP3      H1       HW       0.417000       1.00800           0
     20433 TIP3     2834     TP3      H2       HW       0.417000       1.00800           0
     20434 TIP3     2835     TP3      O        OW      -0.834000       16.0000           0
     20435 TIP3     2835     TP3      H1       HW       0.417000       1.00800           0
     20436 TIP3     2835     TP3      H2       HW       0.417000       1.00800           0
     20437 TIP3     2836     TP3      O        OW      -0.834000       16.0000           0
     20438 TIP3     2836     TP3      H1       HW       0.417000       1.00800           0
     20439 TIP3     2836     TP3      H2       HW       0.417000       1.00800           0
     20440 TIP3     2837     TP3      O        OW      -0.834000       16.0000           0
     20441 TIP3     2837     TP3      H1       HW       0.417000       1.00800           0
     20442 TIP3     2837     TP3      H2       HW       0.417000       1.00800           0
     20443 TIP3     2838     TP3      O        OW      -0.834000       16.0000           0
     20444 TIP3     2838     TP3      H1       HW       0.417000       1.00800           0
     20445 TIP3     2838     TP3      H2       HW       0.417000       1.00800           0
     20446 TIP3     2839     TP3      O        OW      -0.834000       16.0000           0
     20447 TIP3     2839     TP3      H1       HW       0.417000       1.00800           0
     20448 TIP3     2839     TP3      H2       HW       0.417000       1.00800           0
     20449 TIP3     2840     TP3      O        OW      -0.834000       16.0000           0
     20450 TIP3     2840     TP3      H1       HW       0.417000       1.00800           0
     20451 TIP3     2840     TP3      H2       HW       0.417000       1.00800           0
     20452 TIP3     2841     TP3      O        OW      -0.834000       16.0000           0
     20453 TIP3     2841     TP3      H1       HW       0.417000       1.00800           0
     20454 TIP3     2841     TP3      H2       HW       0.417000       1.00800           0
     20455 TIP3     2842     TP3      O        OW      -0.834000       16.0000           0
     20456 TIP3     2842     TP3      H1       HW       0.417000       1.00800           0
     20457 TIP3     2842     TP3      H2       HW       0.417000       1.00800           0
     20458 TIP3     2843     TP3      O        OW      -0.834000       16.0000           0
     20459 TIP3     2843     TP3      H1       HW       0.417000       1.00800           0
     20460 TIP3     2843     TP3      H2       HW       0.417000       1.00800           0
     20461 TIP3     2844     TP3      O        OW      -0.834000       16.0000           0
     20462 TIP3     2844     TP3      H1       HW       0.417000       1.00800           0
     20463 TIP3     2844     TP3      H2       HW       0.417000       1.00800           0
     20464 TIP3     2845     TP3      O        OW      -0.834000       16.0000           0
     20465 TIP3     2845     TP3      H1       HW       0.417000       1.00800           0
     20466 TIP3     2845     TP3      H2       HW       0.417000       1.00800           0
     20467 TIP3     2846     TP3      O        OW      -0.834000       16.0000           0
     20468 TIP3     2846     TP3      H1       HW       0.417000       1.00800           0
     20469 TIP3     2846     TP3      H2       HW       0.417000       1.00800           0
     20470 TIP3     2847     TP3      O        OW      -0.834000       16.0000           0
     20471 TIP3     2847     TP3      H1       HW       0.417000       1.00800           0
     20472 TIP3     2847     TP3      H2       HW       0.417000       1.00800           0
     20473 TIP3     2848     TP3      O        OW      -0.834000       16.0000           0
     20474 TIP3     2848     TP3      H1       HW       0.417000       1.00800           0
     20475 TIP3     2848     TP3      H2       HW       0.417000       1.00800           0
     20476 TIP3     2849     TP3      O        OW      -0.834000       16.0000           0
     20477 TIP3     2849     TP3      H1       HW       0.417000       1.00800           0
     20478 TIP3     2849     TP3      H2       HW       0.417000       1.00800           0
     20479 TIP3     2850     TP3      O        OW      -0.834000       16.0000           0
     20480 TIP3     2850     TP3      H1       HW       0.417000       1.00800           0
     20481 TIP3     2850     TP3      H2       HW       0.417000       1.00800           0
     20482 TIP3     2851     TP3      O        OW      -0.834000       16.0000           0
     20483 TIP3     2851     TP3      H1       HW       0.417000       1.00800           0
     20484 TIP3     2851     TP3      H2       HW       0.417000       1.00800           0
     20485 TIP3     2852     TP3      O        OW      -0.834000       16.0000           0
     20486 TIP3     2852     TP3      H1       HW       0.417000       1.00800           0
     20487 TIP3     2852     TP3      H2       HW       0.417000       1.00800           0
     20488 TIP3     2853     TP3      O        OW      -0.834000       16.0000           0
     20489 TIP3     2853     TP3      H1       HW       0.417000       1.00800           0
     20490 TIP3     2853     TP3      H2       HW       0.417000       1.00800           0
     20491 TIP3     2854     TP3      O        OW      -0.834000       16.0000           0
     20492 TIP3     2854     TP3      H1       HW       0.417000       1.00800           0
     20493 TIP3     2854     TP3      H2       HW       0.417000       1.00800           0
     20494 TIP3     2855     TP3      O        OW      -0.834000       16.0000           0
     20495 TIP3     2855     TP3      H1       HW       0.417000       1.00800           0
     20496 TIP3     2855     TP3      H2       HW       0.417000       1.00800           0
     20497 TIP3     2856     TP3      O        OW      -0.834000       16.0000           0
     20498 TIP3     2856     TP3      H1       HW       0.417000       1.00800           0
     20499 TIP3     2856     TP3      H2       HW       0.417000       1.00800           0
     20500 TIP3     2857     TP3      O        OW      -0.834000       16.0000           0
     20501 TIP3     2857     TP3      H1       HW       0.417000       1.00800           0
     20502 TIP3     2857     TP3      H2       HW       0.417000       1.00800           0
     20503 TIP3     2858     TP3      O        OW      -0.834000       16.0000           0
     20504 TIP3     2858     TP3      H1       HW       0.417000       1.00800           0
     20505 TIP3     2858     TP3      H2       HW       0.417000       1.00800           0
     20506 TIP3     2859     TP3      O        OW      -0.834000       16.0000           0
     20507 TIP3     2859     TP3      H1       HW       0.417000       1.00800           0
     20508 TIP3     2859     TP3      H2       HW       0.417000       1.00800           0
     20509 TIP3     2860     TP3      O        OW      -0.834000       16.0000           0
     20510 TIP3     2860     TP3      H1       HW       0.417000       1.00800           0
     20511 TIP3     2860     TP3      H2       HW       0.417000       1.00800           0
     20512 TIP3     2861     TP3      O        OW      -0.834000       16.0000           0
     20513 TIP3     2861     TP3      H1       HW       0.417000       1.00800           0
     20514 TIP3     2861     TP3      H2       HW       0.417000       1.00800           0
     20515 TIP3     2862     TP3      O        OW      -0.834000       16.0000           0
     20516 TIP3     2862     TP3      H1       HW       0.417000       1.00800           0
     20517 TIP3     2862     TP3      H2       HW       0.417000       1.00800           0
     20518 TIP3     2863     TP3      O        OW      -0.834000       16.0000           0
     20519 TIP3     2863     TP3      H1       HW       0.417000       1.00800           0
     20520 TIP3     2863     TP3      H2       HW       0.417000       1.00800           0
     20521 TIP3     2864     TP3      O        OW      -0.834000       16.0000           0
     20522 TIP3     2864     TP3      H1       HW       0.417000       1.00800           0
     20523 TIP3     2864     TP3      H2       HW       0.417000       1.00800           0
     20524 TIP3     2865     TP3      O        OW      -0.834000       16.0000           0
     20525 TIP3     2865     TP3      H1       HW       0.417000       1.00800           0
     20526 TIP3     2865     TP3      H2       HW       0.417000       1.00800           0
     20527 TIP3     2866     TP3      O        OW      -0.834000       16.0000           0
     20528 TIP3     2866     TP3      H1       HW       0.417000       1.00800           0
     20529 TIP3     2866     TP3      H2       HW       0.417000       1.00800           0
     20530 TIP3     2867     TP3      O        OW      -0.834000       16.0000           0
     20531 TIP3     2867     TP3      H1       HW       0.417000       1.00800           0
     20532 TIP3     2867     TP3      H2       HW       0.417000       1.00800           0
     20533 TIP3     2868     TP3      O        OW      -0.834000       16.0000           0
     20534 TIP3     2868     TP3      H1       HW       0.417000       1.00800           0
     20535 TIP3     2868     TP3      H2       HW       0.417000       1.00800           0
     20536 TIP3     2869     TP3      O        OW      -0.834000       16.0000           0
     20537 TIP3     2869     TP3      H1       HW       0.417000       1.00800           0
     20538 TIP3     2869     TP3      H2       HW       0.417000       1.00800           0
     20539 TIP3     2870     TP3      O        OW      -0.834000       16.0000           0
     20540 TIP3     2870     TP3      H1       HW       0.417000       1.00800           0
     20541 TIP3     2870     TP3      H2       HW       0.417000       1.00800           0
     20542 TIP3     2871     TP3      O        OW      -0.834000       16.0000           0
     20543 TIP3     2871     TP3      H1       HW       0.417000       1.00800           0
     20544 TIP3     2871     TP3      H2       HW       0.417000       1.00800           0
     20545 TIP3     2872     TP3      O        OW      -0.834000       16.0000           0
     20546 TIP3     2872     TP3      H1       HW       0.417000       1.00800           0
     20547 TIP3     2872     TP3      H2       HW       0.417000       1.00800           0
     20548 TIP3     2873     TP3      O        OW      -0.834000       16.0000           0
     20549 TIP3     2873     TP3      H1       HW       0.417000       1.00800           0
     20550 TIP3     2873     TP3      H2       HW       0.417000       1.00800           0
     20551 TIP3     2874     TP3      O        OW      -0.834000       16.0000           0
     20552 TIP3     2874     TP3      H1       HW       0.417000       1.00800           0
     20553 TIP3     2874     TP3      H2       HW       0.417000       1.00800           0
     20554 TIP3     2875     TP3      O        OW      -0.834000       16.0000           0
     20555 TIP3     2875     TP3      H1       HW       0.417000       1.00800           0
     20556 TIP3     2875     TP3      H2       HW       0.417000       1.00800           0
     20557 TIP3     2876     TP3      O        OW      -0.834000       16.0000           0
     20558 TIP3     2876     TP3      H1       HW       0.417000       1.00800           0
     20559 TIP3     2876     TP3      H2       HW       0.417000       1.00800           0
     20560 TIP3     2877     TP3      O        OW      -0.834000       16.0000           0
     20561 TIP3     2877     TP3      H1       HW       0.417000       1.00800           0
     20562 TIP3     2877     TP3      H2       HW       0.417000       1.00800           0
     20563 TIP3     2878     TP3      O        OW      -0.834000       16.0000           0
     20564 TIP3     2878     TP3      H1       HW       0.417000       1.00800           0
     20565 TIP3     2878     TP3      H2       HW       0.417000       1.00800           0
     20566 TIP3     2879     TP3      O        OW      -0.834000       16.0000           0
     20567 TIP3     2879     TP3      H1       HW       0.417000       1.00800           0
     20568 TIP3     2879     TP3      H2       HW       0.417000       1.00800           0
     20569 TIP3     2880     TP3      O        OW      -0.834000       16.0000           0
     20570 TIP3     2880     TP3      H1       HW       0.417000       1.00800           0
     20571 TIP3     2880     TP3      H2       HW       0.417000       1.00800           0
     20572 TIP3     2881     TP3      O        OW      -0.834000       16.0000           0
     20573 TIP3     2881     TP3      H1       HW       0.417000       1.00800           0
     20574 TIP3     2881     TP3      H2       HW       0.417000       1.00800           0
     20575 TIP3     2882     TP3      O        OW      -0.834000       16.0000           0
     20576 TIP3     2882     TP3      H1       HW       0.417000       1.00800           0
     20577 TIP3     2882     TP3      H2       HW       0.417000       1.00800           0
     20578 TIP3     2883     TP3      O        OW      -0.834000       16.0000           0
     20579 TIP3     2883     TP3      H1       HW       0.417000       1.00800           0
     20580 TIP3     2883     TP3      H2       HW       0.417000       1.00800           0
     20581 TIP3     2884     TP3      O        OW      -0.834000       16.0000           0
     20582 TIP3     2884     TP3      H1       HW       0.417000       1.00800           0
     20583 TIP3     2884     TP3      H2       HW       0.417000       1.00800           0
     20584 TIP3     2885     TP3      O        OW      -0.834000       16.0000           0
     20585 TIP3     2885     TP3      H1       HW       0.417000       1.00800           0
     20586 TIP3     2885     TP3      H2       HW       0.417000       1.00800           0
     20587 TIP3     2886     TP3      O        OW      -0.834000       16.0000           0
     20588 TIP3     2886     TP3      H1       HW       0.417000       1.00800           0
     20589 TIP3     2886     TP3      H2       HW       0.417000       1.00800           0
     20590 TIP3     2887     TP3      O        OW      -0.834000       16.0000           0
     20591 TIP3     2887     TP3      H1       HW       0.417000       1.00800           0
     20592 TIP3     2887     TP3      H2       HW       0.417000       1.00800           0
     20593 TIP3     2888     TP3      O        OW      -0.834000       16.0000           0
     20594 TIP3     2888     TP3      H1       HW       0.417000       1.00800           0
     20595 TIP3     2888     TP3      H2       HW       0.417000       1.00800           0
     20596 TIP3     2889     TP3      O        OW      -0.834000       16.0000           0
     20597 TIP3     2889     TP3      H1       HW       0.417000       1.00800           0
     20598 TIP3     2889     TP3      H2       HW       0.417000       1.00800           0
     20599 TIP3     2890     TP3      O        OW      -0.834000       16.0000           0
     20600 TIP3     2890     TP3      H1       HW       0.417000       1.00800           0
     20601 TIP3     2890     TP3      H2       HW       0.417000       1.00800           0
     20602 TIP3     2891     TP3      O        OW      -0.834000       16.0000           0
     20603 TIP3     2891     TP3      H1       HW       0.417000       1.00800           0
     20604 TIP3     2891     TP3      H2       HW       0.417000       1.00800           0
     20605 TIP3     2892     TP3      O        OW      -0.834000       16.0000           0
     20606 TIP3     2892     TP3      H1       HW       0.417000       1.00800           0
     20607 TIP3     2892     TP3      H2       HW       0.417000       1.00800           0
     20608 TIP3     2893     TP3      O        OW      -0.834000       16.0000           0
     20609 TIP3     2893     TP3      H1       HW       0.417000       1.00800           0
     20610 TIP3     2893     TP3      H2       HW       0.417000       1.00800           0
     20611 TIP3     2894     TP3      O        OW      -0.834000       16.0000           0
     20612 TIP3     2894     TP3      H1       HW       0.417000       1.00800           0
     20613 TIP3     2894     TP3      H2       HW       0.417000       1.00800           0
     20614 TIP3     2895     TP3      O        OW      -0.834000       16.0000           0
     20615 TIP3     2895     TP3      H1       HW       0.417000       1.00800           0
     20616 TIP3     2895     TP3      H2       HW       0.417000       1.00800           0
     20617 TIP3     2896     TP3      O        OW      -0.834000       16.0000           0
     20618 TIP3     2896     TP3      H1       HW       0.417000       1.00800           0
     20619 TIP3     2896     TP3      H2       HW       0.417000       1.00800           0
     20620 TIP3     2897     TP3      O        OW      -0.834000       16.0000           0
     20621 TIP3     2897     TP3      H1       HW       0.417000       1.00800           0
     20622 TIP3     2897     TP3      H2       HW       0.417000       1.00800           0
     20623 TIP3     2898     TP3      O        OW      -0.834000       16.0000           0
     20624 TIP3     2898     TP3      H1       HW       0.417000       1.00800           0
     20625 TIP3     2898     TP3      H2       HW       0.417000       1.00800           0
     20626 TIP3     2899     TP3      O        OW      -0.834000       16.0000           0
     20627 TIP3     2899     TP3      H1       HW       0.417000       1.00800           0
     20628 TIP3     2899     TP3      H2       HW       0.417000       1.00800           0
     20629 TIP3     2900     TP3      O        OW      -0.834000       16.0000           0
     20630 TIP3     2900     TP3      H1       HW       0.417000       1.00800           0
     20631 TIP3     2900     TP3      H2       HW       0.417000       1.00800           0
     20632 TIP3     2901     TP3      O        OW      -0.834000       16.0000           0
     20633 TIP3     2901     TP3      H1       HW       0.417000       1.00800           0
     20634 TIP3     2901     TP3      H2       HW       0.417000       1.00800           0
     20635 TIP3     2902     TP3      O        OW      -0.834000       16.0000           0
     20636 TIP3     2902     TP3      H1       HW       0.417000       1.00800           0
     20637 TIP3     2902     TP3      H2       HW       0.417000       1.00800           0
     20638 TIP3     2903     TP3      O        OW      -0.834000       16.0000           0
     20639 TIP3     2903     TP3      H1       HW       0.417000       1.00800           0
     20640 TIP3     2903     TP3      H2       HW       0.417000       1.00800           0
     20641 TIP3     2904     TP3      O        OW      -0.834000       16.0000           0
     20642 TIP3     2904     TP3      H1       HW       0.417000       1.00800           0
     20643 TIP3     2904     TP3      H2       HW       0.417000       1.00800           0
     20644 TIP3     2905     TP3      O        OW      -0.834000       16.0000           0
     20645 TIP3     2905     TP3      H1       HW       0.417000       1.00800           0
     20646 TIP3     2905     TP3      H2       HW       0.417000       1.00800           0
     20647 TIP3     2906     TP3      O        OW      -0.834000       16.0000           0
     20648 TIP3     2906     TP3      H1       HW       0.417000       1.00800           0
     20649 TIP3     2906     TP3      H2       HW       0.417000       1.00800           0
     20650 TIP3     2907     TP3      O        OW      -0.834000       16.0000           0
     20651 TIP3     2907     TP3      H1       HW       0.417000       1.00800           0
     20652 TIP3     2907     TP3      H2       HW       0.417000       1.00800           0
     20653 TIP3     2908     TP3      O        OW      -0.834000       16.0000           0
     20654 TIP3     2908     TP3      H1       HW       0.417000       1.00800           0
     20655 TIP3     2908     TP3      H2       HW       0.417000       1.00800           0
     20656 TIP3     2909     TP3      O        OW      -0.834000       16.0000           0
     20657 TIP3     2909     TP3      H1       HW       0.417000       1.00800           0
     20658 TIP3     2909     TP3      H2       HW       0.417000       1.00800           0
     20659 TIP3     2910     TP3      O        OW      -0.834000       16.0000           0
     20660 TIP3     2910     TP3      H1       HW       0.417000       1.00800           0
     20661 TIP3     2910     TP3      H2       HW       0.417000       1.00800           0
     20662 TIP3     2911     TP3      O        OW      -0.834000       16.0000           0
     20663 TIP3     2911     TP3      H1       HW       0.417000       1.00800           0
     20664 TIP3     2911     TP3      H2       HW       0.417000       1.00800           0
     20665 TIP3     2912     TP3      O        OW      -0.834000       16.0000           0
     20666 TIP3     2912     TP3      H1       HW       0.417000       1.00800           0
     20667 TIP3     2912     TP3      H2       HW       0.417000       1.00800           0
     20668 TIP3     2913     TP3      O        OW      -0.834000       16.0000           0
     20669 TIP3     2913     TP3      H1       HW       0.417000       1.00800           0
     20670 TIP3     2913     TP3      H2       HW       0.417000       1.00800           0
     20671 TIP3     2914     TP3      O        OW      -0.834000       16.0000           0
     20672 TIP3     2914     TP3      H1       HW       0.417000       1.00800           0
     20673 TIP3     2914     TP3      H2       HW       0.417000       1.00800           0
     20674 TIP3     2915     TP3      O        OW      -0.834000       16.0000           0
     20675 TIP3     2915     TP3      H1       HW       0.417000       1.00800           0
     20676 TIP3     2915     TP3      H2       HW       0.417000       1.00800           0
     20677 TIP3     2916     TP3      O        OW      -0.834000       16.0000           0
     20678 TIP3     2916     TP3      H1       HW       0.417000       1.00800           0
     20679 TIP3     2916     TP3      H2       HW       0.417000       1.00800           0
     20680 TIP3     2917     TP3      O        OW      -0.834000       16.0000           0
     20681 TIP3     2917     TP3      H1       HW       0.417000       1.00800           0
     20682 TIP3     2917     TP3      H2       HW       0.417000       1.00800           0
     20683 TIP3     2918     TP3      O        OW      -0.834000       16.0000           0
     20684 TIP3     2918     TP3      H1       HW       0.417000       1.00800           0
     20685 TIP3     2918     TP3      H2       HW       0.417000       1.00800           0
     20686 TIP3     2919     TP3      O        OW      -0.834000       16.0000           0
     20687 TIP3     2919     TP3      H1       HW       0.417000       1.00800           0
     20688 TIP3     2919     TP3      H2       HW       0.417000       1.00800           0
     20689 TIP3     2920     TP3      O        OW      -0.834000       16.0000           0
     20690 TIP3     2920     TP3      H1       HW       0.417000       1.00800           0
     20691 TIP3     2920     TP3      H2       HW       0.417000       1.00800           0
     20692 TIP3     2921     TP3      O        OW      -0.834000       16.0000           0
     20693 TIP3     2921     TP3      H1       HW       0.417000       1.00800           0
     20694 TIP3     2921     TP3      H2       HW       0.417000       1.00800           0
     20695 TIP3     2922     TP3      O        OW      -0.834000       16.0000           0
     20696 TIP3     2922     TP3      H1       HW       0.417000       1.00800           0
     20697 TIP3     2922     TP3      H2       HW       0.417000       1.00800           0
     20698 TIP3     2923     TP3      O        OW      -0.834000       16.0000           0
     20699 TIP3     2923     TP3      H1       HW       0.417000       1.00800           0
     20700 TIP3     2923     TP3      H2       HW       0.417000       1.00800           0
     20701 TIP3     2924     TP3      O        OW      -0.834000       16.0000           0
     20702 TIP3     2924     TP3      H1       HW       0.417000       1.00800           0
     20703 TIP3     2924     TP3      H2       HW       0.417000       1.00800           0
     20704 TIP3     2925     TP3      O        OW      -0.834000       16.0000           0
     20705 TIP3     2925     TP3      H1       HW       0.417000       1.00800           0
     20706 TIP3     2925     TP3      H2       HW       0.417000       1.00800           0
     20707 TIP3     2926     TP3      O        OW      -0.834000       16.0000           0
     20708 TIP3     2926     TP3      H1       HW       0.417000       1.00800           0
     20709 TIP3     2926     TP3      H2       HW       0.417000       1.00800           0
     20710 TIP3     2927     TP3      O        OW      -0.834000       16.0000           0
     20711 TIP3     2927     TP3      H1       HW       0.417000       1.00800           0
     20712 TIP3     2927     TP3      H2       HW       0.417000       1.00800           0
     20713 TIP3     2928     TP3      O        OW      -0.834000       16.0000           0
     20714 TIP3     2928     TP3      H1       HW       0.417000       1.00800           0
     20715 TIP3     2928     TP3      H2       HW       0.417000       1.00800           0
     20716 TIP3     2929     TP3      O        OW      -0.834000       16.0000           0
     20717 TIP3     2929     TP3      H1       HW       0.417000       1.00800           0
     20718 TIP3     2929     TP3      H2       HW       0.417000       1.00800           0
     20719 TIP3     2930     TP3      O        OW      -0.834000       16.0000           0
     20720 TIP3     2930     TP3      H1       HW       0.417000       1.00800           0
     20721 TIP3     2930     TP3      H2       HW       0.417000       1.00800           0
     20722 TIP3     2931     TP3      O        OW      -0.834000       16.0000           0
     20723 TIP3     2931     TP3      H1       HW       0.417000       1.00800           0
     20724 TIP3     2931     TP3      H2       HW       0.417000       1.00800           0
     20725 TIP3     2932     TP3      O        OW      -0.834000       16.0000           0
     20726 TIP3     2932     TP3      H1       HW       0.417000       1.00800           0
     20727 TIP3     2932     TP3      H2       HW       0.417000       1.00800           0
     20728 TIP3     2933     TP3      O        OW      -0.834000       16.0000           0
     20729 TIP3     2933     TP3      H1       HW       0.417000       1.00800           0
     20730 TIP3     2933     TP3      H2       HW       0.417000       1.00800           0
     20731 TIP3     2934     TP3      O        OW      -0.834000       16.0000           0
     20732 TIP3     2934     TP3      H1       HW       0.417000       1.00800           0
     20733 TIP3     2934     TP3      H2       HW       0.417000       1.00800           0
     20734 TIP3     2935     TP3      O        OW      -0.834000       16.0000           0
     20735 TIP3     2935     TP3      H1       HW       0.417000       1.00800           0
     20736 TIP3     2935     TP3      H2       HW       0.417000       1.00800           0
     20737 TIP3     2936     TP3      O        OW      -0.834000       16.0000           0
     20738 TIP3     2936     TP3      H1       HW       0.417000       1.00800           0
     20739 TIP3     2936     TP3      H2       HW       0.417000       1.00800           0
     20740 TIP3     2937     TP3      O        OW      -0.834000       16.0000           0
     20741 TIP3     2937     TP3      H1       HW       0.417000       1.00800           0
     20742 TIP3     2937     TP3      H2       HW       0.417000       1.00800           0
     20743 TIP3     2938     TP3      O        OW      -0.834000       16.0000           0
     20744 TIP3     2938     TP3      H1       HW       0.417000       1.00800           0
     20745 TIP3     2938     TP3      H2       HW       0.417000       1.00800           0
     20746 TIP3     2939     TP3      O        OW      -0.834000       16.0000           0
     20747 TIP3     2939     TP3      H1       HW       0.417000       1.00800           0
     20748 TIP3     2939     TP3      H2       HW       0.417000       1.00800           0
     20749 TIP3     2940     TP3      O        OW      -0.834000       16.0000           0
     20750 TIP3     2940     TP3      H1       HW       0.417000       1.00800           0
     20751 TIP3     2940     TP3      H2       HW       0.417000       1.00800           0
     20752 TIP3     2941     TP3      O        OW      -0.834000       16.0000           0
     20753 TIP3     2941     TP3      H1       HW       0.417000       1.00800           0
     20754 TIP3     2941     TP3      H2       HW       0.417000       1.00800           0
     20755 TIP3     2942     TP3      O        OW      -0.834000       16.0000           0
     20756 TIP3     2942     TP3      H1       HW       0.417000       1.00800           0
     20757 TIP3     2942     TP3      H2       HW       0.417000       1.00800           0
     20758 TIP3     2943     TP3      O        OW      -0.834000       16.0000           0
     20759 TIP3     2943     TP3      H1       HW       0.417000       1.00800           0
     20760 TIP3     2943     TP3      H2       HW       0.417000       1.00800           0
     20761 TIP3     2944     TP3      O        OW      -0.834000       16.0000           0
     20762 TIP3     2944     TP3      H1       HW       0.417000       1.00800           0
     20763 TIP3     2944     TP3      H2       HW       0.417000       1.00800           0
     20764 TIP3     2945     TP3      O        OW      -0.834000       16.0000           0
     20765 TIP3     2945     TP3      H1       HW       0.417000       1.00800           0
     20766 TIP3     2945     TP3      H2       HW       0.417000       1.00800           0
     20767 TIP3     2946     TP3      O        OW      -0.834000       16.0000           0
     20768 TIP3     2946     TP3      H1       HW       0.417000       1.00800           0
     20769 TIP3     2946     TP3      H2       HW       0.417000       1.00800           0
     20770 TIP3     2947     TP3      O        OW      -0.834000       16.0000           0
     20771 TIP3     2947     TP3      H1       HW       0.417000       1.00800           0
     20772 TIP3     2947     TP3      H2       HW       0.417000       1.00800           0
     20773 TIP3     2948     TP3      O        OW      -0.834000       16.0000           0
     20774 TIP3     2948     TP3      H1       HW       0.417000       1.00800           0
     20775 TIP3     2948     TP3      H2       HW       0.417000       1.00800           0
     20776 TIP3     2949     TP3      O        OW      -0.834000       16.0000           0
     20777 TIP3     2949     TP3      H1       HW       0.417000       1.00800           0
     20778 TIP3     2949     TP3      H2       HW       0.417000       1.00800           0
     20779 TIP3     2950     TP3      O        OW      -0.834000       16.0000           0
     20780 TIP3     2950     TP3      H1       HW       0.417000       1.00800           0
     20781 TIP3     2950     TP3      H2       HW       0.417000       1.00800           0
     20782 TIP3     2951     TP3      O        OW      -0.834000       16.0000           0
     20783 TIP3     2951     TP3      H1       HW       0.417000       1.00800           0
     20784 TIP3     2951     TP3      H2       HW       0.417000       1.00800           0
     20785 TIP3     2952     TP3      O        OW      -0.834000       16.0000           0
     20786 TIP3     2952     TP3      H1       HW       0.417000       1.00800           0
     20787 TIP3     2952     TP3      H2       HW       0.417000       1.00800           0
     20788 TIP3     2953     TP3      O        OW      -0.834000       16.0000           0
     20789 TIP3     2953     TP3      H1       HW       0.417000       1.00800           0
     20790 TIP3     2953     TP3      H2       HW       0.417000       1.00800           0
     20791 TIP3     2954     TP3      O        OW      -0.834000       16.0000           0
     20792 TIP3     2954     TP3      H1       HW       0.417000       1.00800           0
     20793 TIP3     2954     TP3      H2       HW       0.417000       1.00800           0
     20794 TIP3     2955     TP3      O        OW      -0.834000       16.0000           0
     20795 TIP3     2955     TP3      H1       HW       0.417000       1.00800           0
     20796 TIP3     2955     TP3      H2       HW       0.417000       1.00800           0
     20797 TIP3     2956     TP3      O        OW      -0.834000       16.0000           0
     20798 TIP3     2956     TP3      H1       HW       0.417000       1.00800           0
     20799 TIP3     2956     TP3      H2       HW       0.417000       1.00800           0
     20800 TIP3     2957     TP3      O        OW      -0.834000       16.0000           0
     20801 TIP3     2957     TP3      H1       HW       0.417000       1.00800           0
     20802 TIP3     2957     TP3      H2       HW       0.417000       1.00800           0
     20803 TIP3     2958     TP3      O        OW      -0.834000       16.0000           0
     20804 TIP3     2958     TP3      H1       HW       0.417000       1.00800           0
     20805 TIP3     2958     TP3      H2       HW       0.417000       1.00800           0
     20806 TIP3     2959     TP3      O        OW      -0.834000       16.0000           0
     20807 TIP3     2959     TP3      H1       HW       0.417000       1.00800           0
     20808 TIP3     2959     TP3      H2       HW       0.417000       1.00800           0
     20809 TIP3     2960     TP3      O        OW      -0.834000       16.0000           0
     20810 TIP3     2960     TP3      H1       HW       0.417000       1.00800           0
     20811 TIP3     2960     TP3      H2       HW       0.417000       1.00800           0
     20812 TIP3     2961     TP3      O        OW      -0.834000       16.0000           0
     20813 TIP3     2961     TP3      H1       HW       0.417000       1.00800           0
     20814 TIP3     2961     TP3      H2       HW       0.417000       1.00800           0
     20815 TIP3     2962     TP3      O        OW      -0.834000       16.0000           0
     20816 TIP3     2962     TP3      H1       HW       0.417000       1.00800           0
     20817 TIP3     2962     TP3      H2       HW       0.417000       1.00800           0
     20818 TIP3     2963     TP3      O        OW      -0.834000       16.0000           0
     20819 TIP3     2963     TP3      H1       HW       0.417000       1.00800           0
     20820 TIP3     2963     TP3      H2       HW       0.417000       1.00800           0
     20821 TIP3     2964     TP3      O        OW      -0.834000       16.0000           0
     20822 TIP3     2964     TP3      H1       HW       0.417000       1.00800           0
     20823 TIP3     2964     TP3      H2       HW       0.417000       1.00800           0
     20824 TIP3     2965     TP3      O        OW      -0.834000       16.0000           0
     20825 TIP3     2965     TP3      H1       HW       0.417000       1.00800           0
     20826 TIP3     2965     TP3      H2       HW       0.417000       1.00800           0
     20827 TIP3     2966     TP3      O        OW      -0.834000       16.0000           0
     20828 TIP3     2966     TP3      H1       HW       0.417000       1.00800           0
     20829 TIP3     2966     TP3      H2       HW       0.417000       1.00800           0
     20830 TIP3     2967     TP3      O        OW      -0.834000       16.0000           0
     20831 TIP3     2967     TP3      H1       HW       0.417000       1.00800           0
     20832 TIP3     2967     TP3      H2       HW       0.417000       1.00800           0
     20833 TIP3     2968     TP3      O        OW      -0.834000       16.0000           0
     20834 TIP3     2968     TP3      H1       HW       0.417000       1.00800           0
     20835 TIP3     2968     TP3      H2       HW       0.417000       1.00800           0
     20836 TIP3     2969     TP3      O        OW      -0.834000       16.0000           0
     20837 TIP3     2969     TP3      H1       HW       0.417000       1.00800           0
     20838 TIP3     2969     TP3      H2       HW       0.417000       1.00800           0
     20839 TIP3     2970     TP3      O        OW      -0.834000       16.0000           0
     20840 TIP3     2970     TP3      H1       HW       0.417000       1.00800           0
     20841 TIP3     2970     TP3      H2       HW       0.417000       1.00800           0
     20842 TIP3     2971     TP3      O        OW      -0.834000       16.0000           0
     20843 TIP3     2971     TP3      H1       HW       0.417000       1.00800           0
     20844 TIP3     2971     TP3      H2       HW       0.417000       1.00800           0
     20845 TIP3     2972     TP3      O        OW      -0.834000       16.0000           0
     20846 TIP3     2972     TP3      H1       HW       0.417000       1.00800           0
     20847 TIP3     2972     TP3      H2       HW       0.417000       1.00800           0
     20848 TIP3     2973     TP3      O        OW      -0.834000       16.0000           0
     20849 TIP3     2973     TP3      H1       HW       0.417000       1.00800           0
     20850 TIP3     2973     TP3      H2       HW       0.417000       1.00800           0
     20851 TIP3     2974     TP3      O        OW      -0.834000       16.0000           0
     20852 TIP3     2974     TP3      H1       HW       0.417000       1.00800           0
     20853 TIP3     2974     TP3      H2       HW       0.417000       1.00800           0
     20854 TIP3     2975     TP3      O        OW      -0.834000       16.0000           0
     20855 TIP3     2975     TP3      H1       HW       0.417000       1.00800           0
     20856 TIP3     2975     TP3      H2       HW       0.417000       1.00800           0
     20857 TIP3     2976     TP3      O        OW      -0.834000       16.0000           0
     20858 TIP3     2976     TP3      H1       HW       0.417000       1.00800           0
     20859 TIP3     2976     TP3      H2       HW       0.417000       1.00800           0
     20860 TIP3     2977     TP3      O        OW      -0.834000       16.0000           0
     20861 TIP3     2977     TP3      H1       HW       0.417000       1.00800           0
     20862 TIP3     2977     TP3      H2       HW       0.417000       1.00800           0
     20863 TIP3     2978     TP3      O        OW      -0.834000       16.0000           0
     20864 TIP3     2978     TP3      H1       HW       0.417000       1.00800           0
     20865 TIP3     2978     TP3      H2       HW       0.417000       1.00800           0
     20866 TIP3     2979     TP3      O        OW      -0.834000       16.0000           0
     20867 TIP3     2979     TP3      H1       HW       0.417000       1.00800           0
     20868 TIP3     2979     TP3      H2       HW       0.417000       1.00800           0
     20869 TIP3     2980     TP3      O        OW      -0.834000       16.0000           0
     20870 TIP3     2980     TP3      H1       HW       0.417000       1.00800           0
     20871 TIP3     2980     TP3      H2       HW       0.417000       1.00800           0
     20872 TIP3     2981     TP3      O        OW      -0.834000       16.0000           0
     20873 TIP3     2981     TP3      H1       HW       0.417000       1.00800           0
     20874 TIP3     2981     TP3      H2       HW       0.417000       1.00800           0
     20875 TIP3     2982     TP3      O        OW      -0.834000       16.0000           0
     20876 TIP3     2982     TP3      H1       HW       0.417000       1.00800           0
     20877 TIP3     2982     TP3      H2       HW       0.417000       1.00800           0
     20878 TIP3     2983     TP3      O        OW      -0.834000       16.0000           0
     20879 TIP3     2983     TP3      H1       HW       0.417000       1.00800           0
     20880 TIP3     2983     TP3      H2       HW       0.417000       1.00800           0
     20881 TIP3     2984     TP3      O        OW      -0.834000       16.0000           0
     20882 TIP3     2984     TP3      H1       HW       0.417000       1.00800           0
     20883 TIP3     2984     TP3      H2       HW       0.417000       1.00800           0
     20884 TIP3     2985     TP3      O        OW      -0.834000       16.0000           0
     20885 TIP3     2985     TP3      H1       HW       0.417000       1.00800           0
     20886 TIP3     2985     TP3      H2       HW       0.417000       1.00800           0
     20887 TIP3     2986     TP3      O        OW      -0.834000       16.0000           0
     20888 TIP3     2986     TP3      H1       HW       0.417000       1.00800           0
     20889 TIP3     2986     TP3      H2       HW       0.417000       1.00800           0
     20890 TIP3     2987     TP3      O        OW      -0.834000       16.0000           0
     20891 TIP3     2987     TP3      H1       HW       0.417000       1.00800           0
     20892 TIP3     2987     TP3      H2       HW       0.417000       1.00800           0
     20893 TIP3     2988     TP3      O        OW      -0.834000       16.0000           0
     20894 TIP3     2988     TP3      H1       HW       0.417000       1.00800           0
     20895 TIP3     2988     TP3      H2       HW       0.417000       1.00800           0
     20896 TIP3     2989     TP3      O        OW      -0.834000       16.0000           0
     20897 TIP3     2989     TP3      H1       HW       0.417000       1.00800           0
     20898 TIP3     2989     TP3      H2       HW       0.417000       1.00800           0
     20899 TIP3     2990     TP3      O        OW      -0.834000       16.0000           0
     20900 TIP3     2990     TP3      H1       HW       0.417000       1.00800           0
     20901 TIP3     2990     TP3      H2       HW       0.417000       1.00800           0
     20902 TIP3     2991     TP3      O        OW      -0.834000       16.0000           0
     20903 TIP3     2991     TP3      H1       HW       0.417000       1.00800           0
     20904 TIP3     2991     TP3      H2       HW       0.417000       1.00800           0
     20905 TIP3     2992     TP3      O        OW      -0.834000       16.0000           0
     20906 TIP3     2992     TP3      H1       HW       0.417000       1.00800           0
     20907 TIP3     2992     TP3      H2       HW       0.417000       1.00800           0
     20908 TIP3     2993     TP3      O        OW      -0.834000       16.0000           0
     20909 TIP3     2993     TP3      H1       HW       0.417000       1.00800           0
     20910 TIP3     2993     TP3      H2       HW       0.417000       1.00800           0
     20911 TIP3     2994     TP3      O        OW      -0.834000       16.0000           0
     20912 TIP3     2994     TP3      H1       HW       0.417000       1.00800           0
     20913 TIP3     2994     TP3      H2       HW       0.417000       1.00800           0
     20914 TIP3     2995     TP3      O        OW      -0.834000       16.0000           0
     20915 TIP3     2995     TP3      H1       HW       0.417000       1.00800           0
     20916 TIP3     2995     TP3      H2       HW       0.417000       1.00800           0
     20917 TIP3     2996     TP3      O        OW      -0.834000       16.0000           0
     20918 TIP3     2996     TP3      H1       HW       0.417000       1.00800           0
     20919 TIP3     2996     TP3      H2       HW       0.417000       1.00800           0
     20920 TIP3     2997     TP3      O        OW      -0.834000       16.0000           0
     20921 TIP3     2997     TP3      H1       HW       0.417000       1.00800           0
     20922 TIP3     2997     TP3      H2       HW       0.417000       1.00800           0
     20923 TIP3     2998     TP3      O        OW      -0.834000       16.0000           0
     20924 TIP3     2998     TP3      H1       HW       0.417000       1.00800           0
     20925 TIP3     2998     TP3      H2       HW       0.417000       1.00800           0
     20926 TIP3     2999     TP3      O        OW      -0.834000       16.0000           0
     20927 TIP3     2999     TP3      H1       HW       0.417000       1.00800           0
     20928 TIP3     2999     TP3      H2       HW       0.417000       1.00800           0
     20929 TIP3     3000     TP3      O        OW      -0.834000       16.0000           0
     20930 TIP3     3000     TP3      H1       HW       0.417000       1.00800           0
     20931 TIP3     3000     TP3      H2       HW       0.417000       1.00800           0
     20932 TIP3     3001     TP3      O        OW      -0.834000       16.0000           0
     20933 TIP3     3001     TP3      H1       HW       0.417000       1.00800           0
     20934 TIP3     3001     TP3      H2       HW       0.417000       1.00800           0
     20935 TIP3     3002     TP3      O        OW      -0.834000       16.0000           0
     20936 TIP3     3002     TP3      H1       HW       0.417000       1.00800           0
     20937 TIP3     3002     TP3      H2       HW       0.417000       1.00800           0
     20938 TIP3     3003     TP3      O        OW      -0.834000       16.0000           0
     20939 TIP3     3003     TP3      H1       HW       0.417000       1.00800           0
     20940 TIP3     3003     TP3      H2       HW       0.417000       1.00800           0
     20941 TIP3     3004     TP3      O        OW      -0.834000       16.0000           0
     20942 TIP3     3004     TP3      H1       HW       0.417000       1.00800           0
     20943 TIP3     3004     TP3      H2       HW       0.417000       1.00800           0
     20944 TIP3     3005     TP3      O        OW      -0.834000       16.0000           0
     20945 TIP3     3005     TP3      H1       HW       0.417000       1.00800           0
     20946 TIP3     3005     TP3      H2       HW       0.417000       1.00800           0
     20947 TIP3     3006     TP3      O        OW      -0.834000       16.0000           0
     20948 TIP3     3006     TP3      H1       HW       0.417000       1.00800           0
     20949 TIP3     3006     TP3      H2       HW       0.417000       1.00800           0
     20950 TIP3     3007     TP3      O        OW      -0.834000       16.0000           0
     20951 TIP3     3007     TP3      H1       HW       0.417000       1.00800           0
     20952 TIP3     3007     TP3      H2       HW       0.417000       1.00800           0
     20953 TIP3     3008     TP3      O        OW      -0.834000       16.0000           0
     20954 TIP3     3008     TP3      H1       HW       0.417000       1.00800           0
     20955 TIP3     3008     TP3      H2       HW       0.417000       1.00800           0
     20956 TIP3     3009     TP3      O        OW      -0.834000       16.0000           0
     20957 TIP3     3009     TP3      H1       HW       0.417000       1.00800           0
     20958 TIP3     3009     TP3      H2       HW       0.417000       1.00800           0
     20959 TIP3     3010     TP3      O        OW      -0.834000       16.0000           0
     20960 TIP3     3010     TP3      H1       HW       0.417000       1.00800           0
     20961 TIP3     3010     TP3      H2       HW       0.417000       1.00800           0
     20962 TIP3     3011     TP3      O        OW      -0.834000       16.0000           0
     20963 TIP3     3011     TP3      H1       HW       0.417000       1.00800           0
     20964 TIP3     3011     TP3      H2       HW       0.417000       1.00800           0
     20965 TIP3     3012     TP3      O        OW      -0.834000       16.0000           0
     20966 TIP3     3012     TP3      H1       HW       0.417000       1.00800           0
     20967 TIP3     3012     TP3      H2       HW       0.417000       1.00800           0
     20968 TIP3     3013     TP3      O        OW      -0.834000       16.0000           0
     20969 TIP3     3013     TP3      H1       HW       0.417000       1.00800           0
     20970 TIP3     3013     TP3      H2       HW       0.417000       1.00800           0
     20971 TIP3     3014     TP3      O        OW      -0.834000       16.0000           0
     20972 TIP3     3014     TP3      H1       HW       0.417000       1.00800           0
     20973 TIP3     3014     TP3      H2       HW       0.417000       1.00800           0
     20974 TIP3     3015     TP3      O        OW      -0.834000       16.0000           0
     20975 TIP3     3015     TP3      H1       HW       0.417000       1.00800           0
     20976 TIP3     3015     TP3      H2       HW       0.417000       1.00800           0
     20977 TIP3     3016     TP3      O        OW      -0.834000       16.0000           0
     20978 TIP3     3016     TP3      H1       HW       0.417000       1.00800           0
     20979 TIP3     3016     TP3      H2       HW       0.417000       1.00800           0
     20980 TIP3     3017     TP3      O        OW      -0.834000       16.0000           0
     20981 TIP3     3017     TP3      H1       HW       0.417000       1.00800           0
     20982 TIP3     3017     TP3      H2       HW       0.417000       1.00800           0
     20983 TIP3     3018     TP3      O        OW      -0.834000       16.0000           0
     20984 TIP3     3018     TP3      H1       HW       0.417000       1.00800           0
     20985 TIP3     3018     TP3      H2       HW       0.417000       1.00800           0
     20986 TIP3     3019     TP3      O        OW      -0.834000       16.0000           0
     20987 TIP3     3019     TP3      H1       HW       0.417000       1.00800           0
     20988 TIP3     3019     TP3      H2       HW       0.417000       1.00800           0
     20989 TIP3     3020     TP3      O        OW      -0.834000       16.0000           0
     20990 TIP3     3020     TP3      H1       HW       0.417000       1.00800           0
     20991 TIP3     3020     TP3      H2       HW       0.417000       1.00800           0
     20992 TIP3     3021     TP3      O        OW      -0.834000       16.0000           0
     20993 TIP3     3021     TP3      H1       HW       0.417000       1.00800           0
     20994 TIP3     3021     TP3      H2       HW       0.417000       1.00800           0
     20995 TIP3     3022     TP3      O        OW      -0.834000       16.0000           0
     20996 TIP3     3022     TP3      H1       HW       0.417000       1.00800           0
     20997 TIP3     3022     TP3      H2       HW       0.417000       1.00800           0
     20998 TIP3     3023     TP3      O        OW      -0.834000       16.0000           0
     20999 TIP3     3023     TP3      H1       HW       0.417000       1.00800           0
     21000 TIP3     3023     TP3      H2       HW       0.417000       1.00800           0
     21001 TIP3     3024     TP3      O        OW      -0.834000       16.0000           0
     21002 TIP3     3024     TP3      H1       HW       0.417000       1.00800           0
     21003 TIP3     3024     TP3      H2       HW       0.417000       1.00800           0
     21004 TIP3     3025     TP3      O        OW      -0.834000       16.0000           0
     21005 TIP3     3025     TP3      H1       HW       0.417000       1.00800           0
     21006 TIP3     3025     TP3      H2       HW       0.417000       1.00800           0
     21007 TIP3     3026     TP3      O        OW      -0.834000       16.0000           0
     21008 TIP3     3026     TP3      H1       HW       0.417000       1.00800           0
     21009 TIP3     3026     TP3      H2       HW       0.417000       1.00800           0
     21010 TIP3     3027     TP3      O        OW      -0.834000       16.0000           0
     21011 TIP3     3027     TP3      H1       HW       0.417000       1.00800           0
     21012 TIP3     3027     TP3      H2       HW       0.417000       1.00800           0
     21013 TIP3     3028     TP3      O        OW      -0.834000       16.0000           0
     21014 TIP3     3028     TP3      H1       HW       0.417000       1.00800           0
     21015 TIP3     3028     TP3      H2       HW       0.417000       1.00800           0
     21016 TIP3     3029     TP3      O        OW      -0.834000       16.0000           0
     21017 TIP3     3029     TP3      H1       HW       0.417000       1.00800           0
     21018 TIP3     3029     TP3      H2       HW       0.417000       1.00800           0
     21019 TIP3     3030     TP3      O        OW      -0.834000       16.0000           0
     21020 TIP3     3030     TP3      H1       HW       0.417000       1.00800           0
     21021 TIP3     3030     TP3      H2       HW       0.417000       1.00800           0
     21022 TIP3     3031     TP3      O        OW      -0.834000       16.0000           0
     21023 TIP3     3031     TP3      H1       HW       0.417000       1.00800           0
     21024 TIP3     3031     TP3      H2       HW       0.417000       1.00800           0
     21025 TIP3     3032     TP3      O        OW      -0.834000       16.0000           0
     21026 TIP3     3032     TP3      H1       HW       0.417000       1.00800           0
     21027 TIP3     3032     TP3      H2       HW       0.417000       1.00800           0
     21028 TIP3     3033     TP3      O        OW      -0.834000       16.0000           0
     21029 TIP3     3033     TP3      H1       HW       0.417000       1.00800           0
     21030 TIP3     3033     TP3      H2       HW       0.417000       1.00800           0
     21031 TIP3     3034     TP3      O        OW      -0.834000       16.0000           0
     21032 TIP3     3034     TP3      H1       HW       0.417000       1.00800           0
     21033 TIP3     3034     TP3      H2       HW       0.417000       1.00800           0
     21034 TIP3     3035     TP3      O        OW      -0.834000       16.0000           0
     21035 TIP3     3035     TP3      H1       HW       0.417000       1.00800           0
     21036 TIP3     3035     TP3      H2       HW       0.417000       1.00800           0
     21037 TIP3     3036     TP3      O        OW      -0.834000       16.0000           0
     21038 TIP3     3036     TP3      H1       HW       0.417000       1.00800           0
     21039 TIP3     3036     TP3      H2       HW       0.417000       1.00800           0
     21040 TIP3     3037     TP3      O        OW      -0.834000       16.0000           0
     21041 TIP3     3037     TP3      H1       HW       0.417000       1.00800           0
     21042 TIP3     3037     TP3      H2       HW       0.417000       1.00800           0
     21043 TIP3     3038     TP3      O        OW      -0.834000       16.0000           0
     21044 TIP3     3038     TP3      H1       HW       0.417000       1.00800           0
     21045 TIP3     3038     TP3      H2       HW       0.417000       1.00800           0
     21046 TIP3     3039     TP3      O        OW      -0.834000       16.0000           0
     21047 TIP3     3039     TP3      H1       HW       0.417000       1.00800           0
     21048 TIP3     3039     TP3      H2       HW       0.417000       1.00800           0
     21049 TIP3     3040     TP3      O        OW      -0.834000       16.0000           0
     21050 TIP3     3040     TP3      H1       HW       0.417000       1.00800           0
     21051 TIP3     3040     TP3      H2       HW       0.417000       1.00800           0
     21052 TIP3     3041     TP3      O        OW      -0.834000       16.0000           0
     21053 TIP3     3041     TP3      H1       HW       0.417000       1.00800           0
     21054 TIP3     3041     TP3      H2       HW       0.417000       1.00800           0
     21055 TIP3     3042     TP3      O        OW      -0.834000       16.0000           0
     21056 TIP3     3042     TP3      H1       HW       0.417000       1.00800           0
     21057 TIP3     3042     TP3      H2       HW       0.417000       1.00800           0
     21058 TIP3     3043     TP3      O        OW      -0.834000       16.0000           0
     21059 TIP3     3043     TP3      H1       HW       0.417000       1.00800           0
     21060 TIP3     3043     TP3      H2       HW       0.417000       1.00800           0
     21061 TIP3     3044     TP3      O        OW      -0.834000       16.0000           0
     21062 TIP3     3044     TP3      H1       HW       0.417000       1.00800           0
     21063 TIP3     3044     TP3      H2       HW       0.417000       1.00800           0
     21064 TIP3     3045     TP3      O        OW      -0.834000       16.0000           0
     21065 TIP3     3045     TP3      H1       HW       0.417000       1.00800           0
     21066 TIP3     3045     TP3      H2       HW       0.417000       1.00800           0
     21067 TIP3     3046     TP3      O        OW      -0.834000       16.0000           0
     21068 TIP3     3046     TP3      H1       HW       0.417000       1.00800           0
     21069 TIP3     3046     TP3      H2       HW       0.417000       1.00800           0
     21070 TIP3     3047     TP3      O        OW      -0.834000       16.0000           0
     21071 TIP3     3047     TP3      H1       HW       0.417000       1.00800           0
     21072 TIP3     3047     TP3      H2       HW       0.417000       1.00800           0
     21073 TIP3     3048     TP3      O        OW      -0.834000       16.0000           0
     21074 TIP3     3048     TP3      H1       HW       0.417000       1.00800           0
     21075 TIP3     3048     TP3      H2       HW       0.417000       1.00800           0
     21076 TIP3     3049     TP3      O        OW      -0.834000       16.0000           0
     21077 TIP3     3049     TP3      H1       HW       0.417000       1.00800           0
     21078 TIP3     3049     TP3      H2       HW       0.417000       1.00800           0
     21079 TIP3     3050     TP3      O        OW      -0.834000       16.0000           0
     21080 TIP3     3050     TP3      H1       HW       0.417000       1.00800           0
     21081 TIP3     3050     TP3      H2       HW       0.417000       1.00800           0
     21082 TIP3     3051     TP3      O        OW      -0.834000       16.0000           0
     21083 TIP3     3051     TP3      H1       HW       0.417000       1.00800           0
     21084 TIP3     3051     TP3      H2       HW       0.417000       1.00800           0
     21085 TIP3     3052     TP3      O        OW      -0.834000       16.0000           0
     21086 TIP3     3052     TP3      H1       HW       0.417000       1.00800           0
     21087 TIP3     3052     TP3      H2       HW       0.417000       1.00800           0
     21088 TIP3     3053     TP3      O        OW      -0.834000       16.0000           0
     21089 TIP3     3053     TP3      H1       HW       0.417000       1.00800           0
     21090 TIP3     3053     TP3      H2       HW       0.417000       1.00800           0
     21091 TIP3     3054     TP3      O        OW      -0.834000       16.0000           0
     21092 TIP3     3054     TP3      H1       HW       0.417000       1.00800           0
     21093 TIP3     3054     TP3      H2       HW       0.417000       1.00800           0
     21094 TIP3     3055     TP3      O        OW      -0.834000       16.0000           0
     21095 TIP3     3055     TP3      H1       HW       0.417000       1.00800           0
     21096 TIP3     3055     TP3      H2       HW       0.417000       1.00800           0
     21097 TIP3     3056     TP3      O        OW      -0.834000       16.0000           0
     21098 TIP3     3056     TP3      H1       HW       0.417000       1.00800           0
     21099 TIP3     3056     TP3      H2       HW       0.417000       1.00800           0
     21100 TIP3     3057     TP3      O        OW      -0.834000       16.0000           0
     21101 TIP3     3057     TP3      H1       HW       0.417000       1.00800           0
     21102 TIP3     3057     TP3      H2       HW       0.417000       1.00800           0
     21103 TIP3     3058     TP3      O        OW      -0.834000       16.0000           0
     21104 TIP3     3058     TP3      H1       HW       0.417000       1.00800           0
     21105 TIP3     3058     TP3      H2       HW       0.417000       1.00800           0
     21106 TIP3     3059     TP3      O        OW      -0.834000       16.0000           0
     21107 TIP3     3059     TP3      H1       HW       0.417000       1.00800           0
     21108 TIP3     3059     TP3      H2       HW       0.417000       1.00800           0
     21109 TIP3     3060     TP3      O        OW      -0.834000       16.0000           0
     21110 TIP3     3060     TP3      H1       HW       0.417000       1.00800           0
     21111 TIP3     3060     TP3      H2       HW       0.417000       1.00800           0
     21112 TIP3     3061     TP3      O        OW      -0.834000       16.0000           0
     21113 TIP3     3061     TP3      H1       HW       0.417000       1.00800           0
     21114 TIP3     3061     TP3      H2       HW       0.417000       1.00800           0
     21115 TIP3     3062     TP3      O        OW      -0.834000       16.0000           0
     21116 TIP3     3062     TP3      H1       HW       0.417000       1.00800           0
     21117 TIP3     3062     TP3      H2       HW       0.417000       1.00800           0
     21118 TIP3     3063     TP3      O        OW      -0.834000       16.0000           0
     21119 TIP3     3063     TP3      H1       HW       0.417000       1.00800           0
     21120 TIP3     3063     TP3      H2       HW       0.417000       1.00800           0
     21121 TIP3     3064     TP3      O        OW      -0.834000       16.0000           0
     21122 TIP3     3064     TP3      H1       HW       0.417000       1.00800           0
     21123 TIP3     3064     TP3      H2       HW       0.417000       1.00800           0
     21124 TIP3     3065     TP3      O        OW      -0.834000       16.0000           0
     21125 TIP3     3065     TP3      H1       HW       0.417000       1.00800           0
     21126 TIP3     3065     TP3      H2       HW       0.417000       1.00800           0
     21127 TIP3     3066     TP3      O        OW      -0.834000       16.0000           0
     21128 TIP3     3066     TP3      H1       HW       0.417000       1.00800           0
     21129 TIP3     3066     TP3      H2       HW       0.417000       1.00800           0
     21130 TIP3     3067     TP3      O        OW      -0.834000       16.0000           0
     21131 TIP3     3067     TP3      H1       HW       0.417000       1.00800           0
     21132 TIP3     3067     TP3      H2       HW       0.417000       1.00800           0
     21133 TIP3     3068     TP3      O        OW      -0.834000       16.0000           0
     21134 TIP3     3068     TP3      H1       HW       0.417000       1.00800           0
     21135 TIP3     3068     TP3      H2       HW       0.417000       1.00800           0
     21136 TIP3     3069     TP3      O        OW      -0.834000       16.0000           0
     21137 TIP3     3069     TP3      H1       HW       0.417000       1.00800           0
     21138 TIP3     3069     TP3      H2       HW       0.417000       1.00800           0
     21139 TIP3     3070     TP3      O        OW      -0.834000       16.0000           0
     21140 TIP3     3070     TP3      H1       HW       0.417000       1.00800           0
     21141 TIP3     3070     TP3      H2       HW       0.417000       1.00800           0
     21142 TIP3     3071     TP3      O        OW      -0.834000       16.0000           0
     21143 TIP3     3071     TP3      H1       HW       0.417000       1.00800           0
     21144 TIP3     3071     TP3      H2       HW       0.417000       1.00800           0
     21145 TIP3     3072     TP3      O        OW      -0.834000       16.0000           0
     21146 TIP3     3072     TP3      H1       HW       0.417000       1.00800           0
     21147 TIP3     3072     TP3      H2       HW       0.417000       1.00800           0
     21148 TIP3     3073     TP3      O        OW      -0.834000       16.0000           0
     21149 TIP3     3073     TP3      H1       HW       0.417000       1.00800           0
     21150 TIP3     3073     TP3      H2       HW       0.417000       1.00800           0
     21151 TIP3     3074     TP3      O        OW      -0.834000       16.0000           0
     21152 TIP3     3074     TP3      H1       HW       0.417000       1.00800           0
     21153 TIP3     3074     TP3      H2       HW       0.417000       1.00800           0
     21154 TIP3     3075     TP3      O        OW      -0.834000       16.0000           0
     21155 TIP3     3075     TP3      H1       HW       0.417000       1.00800           0
     21156 TIP3     3075     TP3      H2       HW       0.417000       1.00800           0
     21157 TIP3     3076     TP3      O        OW      -0.834000       16.0000           0
     21158 TIP3     3076     TP3      H1       HW       0.417000       1.00800           0
     21159 TIP3     3076     TP3      H2       HW       0.417000       1.00800           0
     21160 TIP3     3077     TP3      O        OW      -0.834000       16.0000           0
     21161 TIP3     3077     TP3      H1       HW       0.417000       1.00800           0
     21162 TIP3     3077     TP3      H2       HW       0.417000       1.00800           0
     21163 TIP3     3078     TP3      O        OW      -0.834000       16.0000           0
     21164 TIP3     3078     TP3      H1       HW       0.417000       1.00800           0
     21165 TIP3     3078     TP3      H2       HW       0.417000       1.00800           0
     21166 TIP3     3079     TP3      O        OW      -0.834000       16.0000           0
     21167 TIP3     3079     TP3      H1       HW       0.417000       1.00800           0
     21168 TIP3     3079     TP3      H2       HW       0.417000       1.00800           0
     21169 TIP3     3080     TP3      O        OW      -0.834000       16.0000           0
     21170 TIP3     3080     TP3      H1       HW       0.417000       1.00800           0
     21171 TIP3     3080     TP3      H2       HW       0.417000       1.00800           0
     21172 TIP3     3081     TP3      O        OW      -0.834000       16.0000           0
     21173 TIP3     3081     TP3      H1       HW       0.417000       1.00800           0
     21174 TIP3     3081     TP3      H2       HW       0.417000       1.00800           0
     21175 TIP3     3082     TP3      O        OW      -0.834000       16.0000           0
     21176 TIP3     3082     TP3      H1       HW       0.417000       1.00800           0
     21177 TIP3     3082     TP3      H2       HW       0.417000       1.00800           0
     21178 TIP3     3083     TP3      O        OW      -0.834000       16.0000           0
     21179 TIP3     3083     TP3      H1       HW       0.417000       1.00800           0
     21180 TIP3     3083     TP3      H2       HW       0.417000       1.00800           0
     21181 TIP3     3084     TP3      O        OW      -0.834000       16.0000           0
     21182 TIP3     3084     TP3      H1       HW       0.417000       1.00800           0
     21183 TIP3     3084     TP3      H2       HW       0.417000       1.00800           0
     21184 TIP3     3085     TP3      O        OW      -0.834000       16.0000           0
     21185 TIP3     3085     TP3      H1       HW       0.417000       1.00800           0
     21186 TIP3     3085     TP3      H2       HW       0.417000       1.00800           0
     21187 TIP3     3086     TP3      O        OW      -0.834000       16.0000           0
     21188 TIP3     3086     TP3      H1       HW       0.417000       1.00800           0
     21189 TIP3     3086     TP3      H2       HW       0.417000       1.00800           0
     21190 TIP3     3087     TP3      O        OW      -0.834000       16.0000           0
     21191 TIP3     3087     TP3      H1       HW       0.417000       1.00800           0
     21192 TIP3     3087     TP3      H2       HW       0.417000       1.00800           0
     21193 TIP3     3088     TP3      O        OW      -0.834000       16.0000           0
     21194 TIP3     3088     TP3      H1       HW       0.417000       1.00800           0
     21195 TIP3     3088     TP3      H2       HW       0.417000       1.00800           0
     21196 TIP3     3089     TP3      O        OW      -0.834000       16.0000           0
     21197 TIP3     3089     TP3      H1       HW       0.417000       1.00800           0
     21198 TIP3     3089     TP3      H2       HW       0.417000       1.00800           0
     21199 TIP3     3090     TP3      O        OW      -0.834000       16.0000           0
     21200 TIP3     3090     TP3      H1       HW       0.417000       1.00800           0
     21201 TIP3     3090     TP3      H2       HW       0.417000       1.00800           0
     21202 TIP3     3091     TP3      O        OW      -0.834000       16.0000           0
     21203 TIP3     3091     TP3      H1       HW       0.417000       1.00800           0
     21204 TIP3     3091     TP3      H2       HW       0.417000       1.00800           0
     21205 TIP3     3092     TP3      O        OW      -0.834000       16.0000           0
     21206 TIP3     3092     TP3      H1       HW       0.417000       1.00800           0
     21207 TIP3     3092     TP3      H2       HW       0.417000       1.00800           0
     21208 TIP3     3093     TP3      O        OW      -0.834000       16.0000           0
     21209 TIP3     3093     TP3      H1       HW       0.417000       1.00800           0
     21210 TIP3     3093     TP3      H2       HW       0.417000       1.00800           0
     21211 TIP3     3094     TP3      O        OW      -0.834000       16.0000           0
     21212 TIP3     3094     TP3      H1       HW       0.417000       1.00800           0
     21213 TIP3     3094     TP3      H2       HW       0.417000       1.00800           0
     21214 TIP3     3095     TP3      O        OW      -0.834000       16.0000           0
     21215 TIP3     3095     TP3      H1       HW       0.417000       1.00800           0
     21216 TIP3     3095     TP3      H2       HW       0.417000       1.00800           0
     21217 TIP3     3096     TP3      O        OW      -0.834000       16.0000           0
     21218 TIP3     3096     TP3      H1       HW       0.417000       1.00800           0
     21219 TIP3     3096     TP3      H2       HW       0.417000       1.00800           0
     21220 TIP3     3097     TP3      O        OW      -0.834000       16.0000           0
     21221 TIP3     3097     TP3      H1       HW       0.417000       1.00800           0
     21222 TIP3     3097     TP3      H2       HW       0.417000       1.00800           0
     21223 TIP3     3098     TP3      O        OW      -0.834000       16.0000           0
     21224 TIP3     3098     TP3      H1       HW       0.417000       1.00800           0
     21225 TIP3     3098     TP3      H2       HW       0.417000       1.00800           0
     21226 TIP3     3099     TP3      O        OW      -0.834000       16.0000           0
     21227 TIP3     3099     TP3      H1       HW       0.417000       1.00800           0
     21228 TIP3     3099     TP3      H2       HW       0.417000       1.00800           0
     21229 TIP3     3100     TP3      O        OW      -0.834000       16.0000           0
     21230 TIP3     3100     TP3      H1       HW       0.417000       1.00800           0
     21231 TIP3     3100     TP3      H2       HW       0.417000       1.00800           0
     21232 TIP3     3101     TP3      O        OW      -0.834000       16.0000           0
     21233 TIP3     3101     TP3      H1       HW       0.417000       1.00800           0
     21234 TIP3     3101     TP3      H2       HW       0.417000       1.00800           0
     21235 TIP3     3102     TP3      O        OW      -0.834000       16.0000           0
     21236 TIP3     3102     TP3      H1       HW       0.417000       1.00800           0
     21237 TIP3     3102     TP3      H2       HW       0.417000       1.00800           0
     21238 TIP3     3103     TP3      O        OW      -0.834000       16.0000           0
     21239 TIP3     3103     TP3      H1       HW       0.417000       1.00800           0
     21240 TIP3     3103     TP3      H2       HW       0.417000       1.00800           0
     21241 TIP3     3104     TP3      O        OW      -0.834000       16.0000           0
     21242 TIP3     3104     TP3      H1       HW       0.417000       1.00800           0
     21243 TIP3     3104     TP3      H2       HW       0.417000       1.00800           0
     21244 TIP3     3105     TP3      O        OW      -0.834000       16.0000           0
     21245 TIP3     3105     TP3      H1       HW       0.417000       1.00800           0
     21246 TIP3     3105     TP3      H2       HW       0.417000       1.00800           0
     21247 TIP3     3106     TP3      O        OW      -0.834000       16.0000           0
     21248 TIP3     3106     TP3      H1       HW       0.417000       1.00800           0
     21249 TIP3     3106     TP3      H2       HW       0.417000       1.00800           0
     21250 TIP3     3107     TP3      O        OW      -0.834000       16.0000           0
     21251 TIP3     3107     TP3      H1       HW       0.417000       1.00800           0
     21252 TIP3     3107     TP3      H2       HW       0.417000       1.00800           0
     21253 TIP3     3108     TP3      O        OW      -0.834000       16.0000           0
     21254 TIP3     3108     TP3      H1       HW       0.417000       1.00800           0
     21255 TIP3     3108     TP3      H2       HW       0.417000       1.00800           0
     21256 TIP3     3109     TP3      O        OW      -0.834000       16.0000           0
     21257 TIP3     3109     TP3      H1       HW       0.417000       1.00800           0
     21258 TIP3     3109     TP3      H2       HW       0.417000       1.00800           0
     21259 TIP3     3110     TP3      O        OW      -0.834000       16.0000           0
     21260 TIP3     3110     TP3      H1       HW       0.417000       1.00800           0
     21261 TIP3     3110     TP3      H2       HW       0.417000       1.00800           0
     21262 TIP3     3111     TP3      O        OW      -0.834000       16.0000           0
     21263 TIP3     3111     TP3      H1       HW       0.417000       1.00800           0
     21264 TIP3     3111     TP3      H2       HW       0.417000       1.00800           0
     21265 TIP3     3112     TP3      O        OW      -0.834000       16.0000           0
     21266 TIP3     3112     TP3      H1       HW       0.417000       1.00800           0
     21267 TIP3     3112     TP3      H2       HW       0.417000       1.00800           0
     21268 TIP3     3113     TP3      O        OW      -0.834000       16.0000           0
     21269 TIP3     3113     TP3      H1       HW       0.417000       1.00800           0
     21270 TIP3     3113     TP3      H2       HW       0.417000       1.00800           0
     21271 TIP3     3114     TP3      O        OW      -0.834000       16.0000           0
     21272 TIP3     3114     TP3      H1       HW       0.417000       1.00800           0
     21273 TIP3     3114     TP3      H2       HW       0.417000       1.00800           0
     21274 TIP3     3115     TP3      O        OW      -0.834000       16.0000           0
     21275 TIP3     3115     TP3      H1       HW       0.417000       1.00800           0
     21276 TIP3     3115     TP3      H2       HW       0.417000       1.00800           0
     21277 TIP3     3116     TP3      O        OW      -0.834000       16.0000           0
     21278 TIP3     3116     TP3      H1       HW       0.417000       1.00800           0
     21279 TIP3     3116     TP3      H2       HW       0.417000       1.00800           0
     21280 TIP3     3117     TP3      O        OW      -0.834000       16.0000           0
     21281 TIP3     3117     TP3      H1       HW       0.417000       1.00800           0
     21282 TIP3     3117     TP3      H2       HW       0.417000       1.00800           0
     21283 TIP3     3118     TP3      O        OW      -0.834000       16.0000           0
     21284 TIP3     3118     TP3      H1       HW       0.417000       1.00800           0
     21285 TIP3     3118     TP3      H2       HW       0.417000       1.00800           0
     21286 TIP3     3119     TP3      O        OW      -0.834000       16.0000           0
     21287 TIP3     3119     TP3      H1       HW       0.417000       1.00800           0
     21288 TIP3     3119     TP3      H2       HW       0.417000       1.00800           0
     21289 TIP3     3120     TP3      O        OW      -0.834000       16.0000           0
     21290 TIP3     3120     TP3      H1       HW       0.417000       1.00800           0
     21291 TIP3     3120     TP3      H2       HW       0.417000       1.00800           0
     21292 TIP3     3121     TP3      O        OW      -0.834000       16.0000           0
     21293 TIP3     3121     TP3      H1       HW       0.417000       1.00800           0
     21294 TIP3     3121     TP3      H2       HW       0.417000       1.00800           0
     21295 TIP3     3122     TP3      O        OW      -0.834000       16.0000           0
     21296 TIP3     3122     TP3      H1       HW       0.417000       1.00800           0
     21297 TIP3     3122     TP3      H2       HW       0.417000       1.00800           0
     21298 TIP3     3123     TP3      O        OW      -0.834000       16.0000           0
     21299 TIP3     3123     TP3      H1       HW       0.417000       1.00800           0
     21300 TIP3     3123     TP3      H2       HW       0.417000       1.00800           0
     21301 TIP3     3124     TP3      O        OW      -0.834000       16.0000           0
     21302 TIP3     3124     TP3      H1       HW       0.417000       1.00800           0
     21303 TIP3     3124     TP3      H2       HW       0.417000       1.00800           0
     21304 TIP3     3125     TP3      O        OW      -0.834000       16.0000           0
     21305 TIP3     3125     TP3      H1       HW       0.417000       1.00800           0
     21306 TIP3     3125     TP3      H2       HW       0.417000       1.00800           0
     21307 TIP3     3126     TP3      O        OW      -0.834000       16.0000           0
     21308 TIP3     3126     TP3      H1       HW       0.417000       1.00800           0
     21309 TIP3     3126     TP3      H2       HW       0.417000       1.00800           0
     21310 TIP3     3127     TP3      O        OW      -0.834000       16.0000           0
     21311 TIP3     3127     TP3      H1       HW       0.417000       1.00800           0
     21312 TIP3     3127     TP3      H2       HW       0.417000       1.00800           0
     21313 TIP3     3128     TP3      O        OW      -0.834000       16.0000           0
     21314 TIP3     3128     TP3      H1       HW       0.417000       1.00800           0
     21315 TIP3     3128     TP3      H2       HW       0.417000       1.00800           0
     21316 TIP3     3129     TP3      O        OW      -0.834000       16.0000           0
     21317 TIP3     3129     TP3      H1       HW       0.417000       1.00800           0
     21318 TIP3     3129     TP3      H2       HW       0.417000       1.00800           0
     21319 TIP3     3130     TP3      O        OW      -0.834000       16.0000           0
     21320 TIP3     3130     TP3      H1       HW       0.417000       1.00800           0
     21321 TIP3     3130     TP3      H2       HW       0.417000       1.00800           0
     21322 TIP3     3131     TP3      O        OW      -0.834000       16.0000           0
     21323 TIP3     3131     TP3      H1       HW       0.417000       1.00800           0
     21324 TIP3     3131     TP3      H2       HW       0.417000       1.00800           0
     21325 TIP3     3132     TP3      O        OW      -0.834000       16.0000           0
     21326 TIP3     3132     TP3      H1       HW       0.417000       1.00800           0
     21327 TIP3     3132     TP3      H2       HW       0.417000       1.00800           0
     21328 TIP3     3133     TP3      O        OW      -0.834000       16.0000           0
     21329 TIP3     3133     TP3      H1       HW       0.417000       1.00800           0
     21330 TIP3     3133     TP3      H2       HW       0.417000       1.00800           0
     21331 TIP3     3134     TP3      O        OW      -0.834000       16.0000           0
     21332 TIP3     3134     TP3      H1       HW       0.417000       1.00800           0
     21333 TIP3     3134     TP3      H2       HW       0.417000       1.00800           0
     21334 TIP3     3135     TP3      O        OW      -0.834000       16.0000           0
     21335 TIP3     3135     TP3      H1       HW       0.417000       1.00800           0
     21336 TIP3     3135     TP3      H2       HW       0.417000       1.00800           0
     21337 TIP3     3136     TP3      O        OW      -0.834000       16.0000           0
     21338 TIP3     3136     TP3      H1       HW       0.417000       1.00800           0
     21339 TIP3     3136     TP3      H2       HW       0.417000       1.00800           0
     21340 TIP3     3137     TP3      O        OW      -0.834000       16.0000           0
     21341 TIP3     3137     TP3      H1       HW       0.417000       1.00800           0
     21342 TIP3     3137     TP3      H2       HW       0.417000       1.00800           0
     21343 TIP3     3138     TP3      O        OW      -0.834000       16.0000           0
     21344 TIP3     3138     TP3      H1       HW       0.417000       1.00800           0
     21345 TIP3     3138     TP3      H2       HW       0.417000       1.00800           0
     21346 TIP3     3139     TP3      O        OW      -0.834000       16.0000           0
     21347 TIP3     3139     TP3      H1       HW       0.417000       1.00800           0
     21348 TIP3     3139     TP3      H2       HW       0.417000       1.00800           0
     21349 TIP3     3140     TP3      O        OW      -0.834000       16.0000           0
     21350 TIP3     3140     TP3      H1       HW       0.417000       1.00800           0
     21351 TIP3     3140     TP3      H2       HW       0.417000       1.00800           0
     21352 TIP3     3141     TP3      O        OW      -0.834000       16.0000           0
     21353 TIP3     3141     TP3      H1       HW       0.417000       1.00800           0
     21354 TIP3     3141     TP3      H2       HW       0.417000       1.00800           0
     21355 TIP3     3142     TP3      O        OW      -0.834000       16.0000           0
     21356 TIP3     3142     TP3      H1       HW       0.417000       1.00800           0
     21357 TIP3     3142     TP3      H2       HW       0.417000       1.00800           0
     21358 TIP3     3143     TP3      O        OW      -0.834000       16.0000           0
     21359 TIP3     3143     TP3      H1       HW       0.417000       1.00800           0
     21360 TIP3     3143     TP3      H2       HW       0.417000       1.00800           0
     21361 TIP3     3144     TP3      O        OW      -0.834000       16.0000           0
     21362 TIP3     3144     TP3      H1       HW       0.417000       1.00800           0
     21363 TIP3     3144     TP3      H2       HW       0.417000       1.00800           0
     21364 TIP3     3145     TP3      O        OW      -0.834000       16.0000           0
     21365 TIP3     3145     TP3      H1       HW       0.417000       1.00800           0
     21366 TIP3     3145     TP3      H2       HW       0.417000       1.00800           0
     21367 TIP3     3146     TP3      O        OW      -0.834000       16.0000           0
     21368 TIP3     3146     TP3      H1       HW       0.417000       1.00800           0
     21369 TIP3     3146     TP3      H2       HW       0.417000       1.00800           0
     21370 TIP3     3147     TP3      O        OW      -0.834000       16.0000           0
     21371 TIP3     3147     TP3      H1       HW       0.417000       1.00800           0
     21372 TIP3     3147     TP3      H2       HW       0.417000       1.00800           0
     21373 TIP3     3148     TP3      O        OW      -0.834000       16.0000           0
     21374 TIP3     3148     TP3      H1       HW       0.417000       1.00800           0
     21375 TIP3     3148     TP3      H2       HW       0.417000       1.00800           0
     21376 TIP3     3149     TP3      O        OW      -0.834000       16.0000           0
     21377 TIP3     3149     TP3      H1       HW       0.417000       1.00800           0
     21378 TIP3     3149     TP3      H2       HW       0.417000       1.00800           0
     21379 TIP3     3150     TP3      O        OW      -0.834000       16.0000           0
     21380 TIP3     3150     TP3      H1       HW       0.417000       1.00800           0
     21381 TIP3     3150     TP3      H2       HW       0.417000       1.00800           0
     21382 TIP3     3151     TP3      O        OW      -0.834000       16.0000           0
     21383 TIP3     3151     TP3      H1       HW       0.417000       1.00800           0
     21384 TIP3     3151     TP3      H2       HW       0.417000       1.00800           0
     21385 TIP3     3152     TP3      O        OW      -0.834000       16.0000           0
     21386 TIP3     3152     TP3      H1       HW       0.417000       1.00800           0
     21387 TIP3     3152     TP3      H2       HW       0.417000       1.00800           0
     21388 TIP3     3153     TP3      O        OW      -0.834000       16.0000           0
     21389 TIP3     3153     TP3      H1       HW       0.417000       1.00800           0
     21390 TIP3     3153     TP3      H2       HW       0.417000       1.00800           0
     21391 TIP3     3154     TP3      O        OW      -0.834000       16.0000           0
     21392 TIP3     3154     TP3      H1       HW       0.417000       1.00800           0
     21393 TIP3     3154     TP3      H2       HW       0.417000       1.00800           0
     21394 TIP3     3155     TP3      O        OW      -0.834000       16.0000           0
     21395 TIP3     3155     TP3      H1       HW       0.417000       1.00800           0
     21396 TIP3     3155     TP3      H2       HW       0.417000       1.00800           0
     21397 TIP3     3156     TP3      O        OW      -0.834000       16.0000           0
     21398 TIP3     3156     TP3      H1       HW       0.417000       1.00800           0
     21399 TIP3     3156     TP3      H2       HW       0.417000       1.00800           0
     21400 TIP3     3157     TP3      O        OW      -0.834000       16.0000           0
     21401 TIP3     3157     TP3      H1       HW       0.417000       1.00800           0
     21402 TIP3     3157     TP3      H2       HW       0.417000       1.00800           0
     21403 TIP3     3158     TP3      O        OW      -0.834000       16.0000           0
     21404 TIP3     3158     TP3      H1       HW       0.417000       1.00800           0
     21405 TIP3     3158     TP3      H2       HW       0.417000       1.00800           0
     21406 TIP3     3159     TP3      O        OW      -0.834000       16.0000           0
     21407 TIP3     3159     TP3      H1       HW       0.417000       1.00800           0
     21408 TIP3     3159     TP3      H2       HW       0.417000       1.00800           0
     21409 TIP3     3160     TP3      O        OW      -0.834000       16.0000           0
     21410 TIP3     3160     TP3      H1       HW       0.417000       1.00800           0
     21411 TIP3     3160     TP3      H2       HW       0.417000       1.00800           0
     21412 TIP3     3161     TP3      O        OW      -0.834000       16.0000           0
     21413 TIP3     3161     TP3      H1       HW       0.417000       1.00800           0
     21414 TIP3     3161     TP3      H2       HW       0.417000       1.00800           0
     21415 TIP3     3162     TP3      O        OW      -0.834000       16.0000           0
     21416 TIP3     3162     TP3      H1       HW       0.417000       1.00800           0
     21417 TIP3     3162     TP3      H2       HW       0.417000       1.00800           0
     21418 TIP3     3163     TP3      O        OW      -0.834000       16.0000           0
     21419 TIP3     3163     TP3      H1       HW       0.417000       1.00800           0
     21420 TIP3     3163     TP3      H2       HW       0.417000       1.00800           0
     21421 TIP3     3164     TP3      O        OW      -0.834000       16.0000           0
     21422 TIP3     3164     TP3      H1       HW       0.417000       1.00800           0
     21423 TIP3     3164     TP3      H2       HW       0.417000       1.00800           0
     21424 TIP3     3165     TP3      O        OW      -0.834000       16.0000           0
     21425 TIP3     3165     TP3      H1       HW       0.417000       1.00800           0
     21426 TIP3     3165     TP3      H2       HW       0.417000       1.00800           0
     21427 TIP3     3166     TP3      O        OW      -0.834000       16.0000           0
     21428 TIP3     3166     TP3      H1       HW       0.417000       1.00800           0
     21429 TIP3     3166     TP3      H2       HW       0.417000       1.00800           0
     21430 TIP3     3167     TP3      O        OW      -0.834000       16.0000           0
     21431 TIP3     3167     TP3      H1       HW       0.417000       1.00800           0
     21432 TIP3     3167     TP3      H2       HW       0.417000       1.00800           0
     21433 TIP3     3168     TP3      O        OW      -0.834000       16.0000           0
     21434 TIP3     3168     TP3      H1       HW       0.417000       1.00800           0
     21435 TIP3     3168     TP3      H2       HW       0.417000       1.00800           0
     21436 TIP3     3169     TP3      O        OW      -0.834000       16.0000           0
     21437 TIP3     3169     TP3      H1       HW       0.417000       1.00800           0
     21438 TIP3     3169     TP3      H2       HW       0.417000       1.00800           0
     21439 TIP3     3170     TP3      O        OW      -0.834000       16.0000           0
     21440 TIP3     3170     TP3      H1       HW       0.417000       1.00800           0
     21441 TIP3     3170     TP3      H2       HW       0.417000       1.00800           0
     21442 TIP3     3171     TP3      O        OW      -0.834000       16.0000           0
     21443 TIP3     3171     TP3      H1       HW       0.417000       1.00800           0
     21444 TIP3     3171     TP3      H2       HW       0.417000       1.00800           0
     21445 TIP3     3172     TP3      O        OW      -0.834000       16.0000           0
     21446 TIP3     3172     TP3      H1       HW       0.417000       1.00800           0
     21447 TIP3     3172     TP3      H2       HW       0.417000       1.00800           0
     21448 TIP3     3173     TP3      O        OW      -0.834000       16.0000           0
     21449 TIP3     3173     TP3      H1       HW       0.417000       1.00800           0
     21450 TIP3     3173     TP3      H2       HW       0.417000       1.00800           0
     21451 TIP3     3174     TP3      O        OW      -0.834000       16.0000           0
     21452 TIP3     3174     TP3      H1       HW       0.417000       1.00800           0
     21453 TIP3     3174     TP3      H2       HW       0.417000       1.00800           0
     21454 TIP3     3175     TP3      O        OW      -0.834000       16.0000           0
     21455 TIP3     3175     TP3      H1       HW       0.417000       1.00800           0
     21456 TIP3     3175     TP3      H2       HW       0.417000       1.00800           0
     21457 TIP3     3176     TP3      O        OW      -0.834000       16.0000           0
     21458 TIP3     3176     TP3      H1       HW       0.417000       1.00800           0
     21459 TIP3     3176     TP3      H2       HW       0.417000       1.00800           0
     21460 TIP3     3177     TP3      O        OW      -0.834000       16.0000           0
     21461 TIP3     3177     TP3      H1       HW       0.417000       1.00800           0
     21462 TIP3     3177     TP3      H2       HW       0.417000       1.00800           0
     21463 TIP3     3178     TP3      O        OW      -0.834000       16.0000           0
     21464 TIP3     3178     TP3      H1       HW       0.417000       1.00800           0
     21465 TIP3     3178     TP3      H2       HW       0.417000       1.00800           0
     21466 TIP3     3179     TP3      O        OW      -0.834000       16.0000           0
     21467 TIP3     3179     TP3      H1       HW       0.417000       1.00800           0
     21468 TIP3     3179     TP3      H2       HW       0.417000       1.00800           0
     21469 TIP3     3180     TP3      O        OW      -0.834000       16.0000           0
     21470 TIP3     3180     TP3      H1       HW       0.417000       1.00800           0
     21471 TIP3     3180     TP3      H2       HW       0.417000       1.00800           0
     21472 TIP3     3181     TP3      O        OW      -0.834000       16.0000           0
     21473 TIP3     3181     TP3      H1       HW       0.417000       1.00800           0
     21474 TIP3     3181     TP3      H2       HW       0.417000       1.00800           0
     21475 TIP3     3182     TP3      O        OW      -0.834000       16.0000           0
     21476 TIP3     3182     TP3      H1       HW       0.417000       1.00800           0
     21477 TIP3     3182     TP3      H2       HW       0.417000       1.00800           0
     21478 TIP3     3183     TP3      O        OW      -0.834000       16.0000           0
     21479 TIP3     3183     TP3      H1       HW       0.417000       1.00800           0
     21480 TIP3     3183     TP3      H2       HW       0.417000       1.00800           0
     21481 TIP3     3184     TP3      O        OW      -0.834000       16.0000           0
     21482 TIP3     3184     TP3      H1       HW       0.417000       1.00800           0
     21483 TIP3     3184     TP3      H2       HW       0.417000       1.00800           0
     21484 TIP3     3185     TP3      O        OW      -0.834000       16.0000           0
     21485 TIP3     3185     TP3      H1       HW       0.417000       1.00800           0
     21486 TIP3     3185     TP3      H2       HW       0.417000       1.00800           0
     21487 TIP3     3186     TP3      O        OW      -0.834000       16.0000           0
     21488 TIP3     3186     TP3      H1       HW       0.417000       1.00800           0
     21489 TIP3     3186     TP3      H2       HW       0.417000       1.00800           0
     21490 TIP3     3187     TP3      O        OW      -0.834000       16.0000           0
     21491 TIP3     3187     TP3      H1       HW       0.417000       1.00800           0
     21492 TIP3     3187     TP3      H2       HW       0.417000       1.00800           0
     21493 TIP3     3188     TP3      O        OW      -0.834000       16.0000           0
     21494 TIP3     3188     TP3      H1       HW       0.417000       1.00800           0
     21495 TIP3     3188     TP3      H2       HW       0.417000       1.00800           0
     21496 TIP3     3189     TP3      O        OW      -0.834000       16.0000           0
     21497 TIP3     3189     TP3      H1       HW       0.417000       1.00800           0
     21498 TIP3     3189     TP3      H2       HW       0.417000       1.00800           0
     21499 TIP3     3190     TP3      O        OW      -0.834000       16.0000           0
     21500 TIP3     3190     TP3      H1       HW       0.417000       1.00800           0
     21501 TIP3     3190     TP3      H2       HW       0.417000       1.00800           0
     21502 TIP3     3191     TP3      O        OW      -0.834000       16.0000           0
     21503 TIP3     3191     TP3      H1       HW       0.417000       1.00800           0
     21504 TIP3     3191     TP3      H2       HW       0.417000       1.00800           0
     21505 TIP3     3192     TP3      O        OW      -0.834000       16.0000           0
     21506 TIP3     3192     TP3      H1       HW       0.417000       1.00800           0
     21507 TIP3     3192     TP3      H2       HW       0.417000       1.00800           0
     21508 TIP3     3193     TP3      O        OW      -0.834000       16.0000           0
     21509 TIP3     3193     TP3      H1       HW       0.417000       1.00800           0
     21510 TIP3     3193     TP3      H2       HW       0.417000       1.00800           0
     21511 TIP3     3194     TP3      O        OW      -0.834000       16.0000           0
     21512 TIP3     3194     TP3      H1       HW       0.417000       1.00800           0
     21513 TIP3     3194     TP3      H2       HW       0.417000       1.00800           0
     21514 TIP3     3195     TP3      O        OW      -0.834000       16.0000           0
     21515 TIP3     3195     TP3      H1       HW       0.417000       1.00800           0
     21516 TIP3     3195     TP3      H2       HW       0.417000       1.00800           0
     21517 TIP3     3196     TP3      O        OW      -0.834000       16.0000           0
     21518 TIP3     3196     TP3      H1       HW       0.417000       1.00800           0
     21519 TIP3     3196     TP3      H2       HW       0.417000       1.00800           0
     21520 TIP3     3197     TP3      O        OW      -0.834000       16.0000           0
     21521 TIP3     3197     TP3      H1       HW       0.417000       1.00800           0
     21522 TIP3     3197     TP3      H2       HW       0.417000       1.00800           0
     21523 TIP3     3198     TP3      O        OW      -0.834000       16.0000           0
     21524 TIP3     3198     TP3      H1       HW       0.417000       1.00800           0
     21525 TIP3     3198     TP3      H2       HW       0.417000       1.00800           0
     21526 TIP3     3199     TP3      O        OW      -0.834000       16.0000           0
     21527 TIP3     3199     TP3      H1       HW       0.417000       1.00800           0
     21528 TIP3     3199     TP3      H2       HW       0.417000       1.00800           0
     21529 TIP3     3200     TP3      O        OW      -0.834000       16.0000           0
     21530 TIP3     3200     TP3      H1       HW       0.417000       1.00800           0
     21531 TIP3     3200     TP3      H2       HW       0.417000       1.00800           0
     21532 TIP3     3201     TP3      O        OW      -0.834000       16.0000           0
     21533 TIP3     3201     TP3      H1       HW       0.417000       1.00800           0
     21534 TIP3     3201     TP3      H2       HW       0.417000       1.00800           0
     21535 TIP3     3202     TP3      O        OW      -0.834000       16.0000           0
     21536 TIP3     3202     TP3      H1       HW       0.417000       1.00800           0
     21537 TIP3     3202     TP3      H2       HW       0.417000       1.00800           0
     21538 TIP3     3203     TP3      O        OW      -0.834000       16.0000           0
     21539 TIP3     3203     TP3      H1       HW       0.417000       1.00800           0
     21540 TIP3     3203     TP3      H2       HW       0.417000       1.00800           0
     21541 TIP3     3204     TP3      O        OW      -0.834000       16.0000           0
     21542 TIP3     3204     TP3      H1       HW       0.417000       1.00800           0
     21543 TIP3     3204     TP3      H2       HW       0.417000       1.00800           0
     21544 TIP3     3205     TP3      O        OW      -0.834000       16.0000           0
     21545 TIP3     3205     TP3      H1       HW       0.417000       1.00800           0
     21546 TIP3     3205     TP3      H2       HW       0.417000       1.00800           0
     21547 TIP3     3206     TP3      O        OW      -0.834000       16.0000           0
     21548 TIP3     3206     TP3      H1       HW       0.417000       1.00800           0
     21549 TIP3     3206     TP3      H2       HW       0.417000       1.00800           0
     21550 TIP3     3207     TP3      O        OW      -0.834000       16.0000           0
     21551 TIP3     3207     TP3      H1       HW       0.417000       1.00800           0
     21552 TIP3     3207     TP3      H2       HW       0.417000       1.00800           0
     21553 TIP3     3208     TP3      O        OW      -0.834000       16.0000           0
     21554 TIP3     3208     TP3      H1       HW       0.417000       1.00800           0
     21555 TIP3     3208     TP3      H2       HW       0.417000       1.00800           0
     21556 TIP3     3209     TP3      O        OW      -0.834000       16.0000           0
     21557 TIP3     3209     TP3      H1       HW       0.417000       1.00800           0
     21558 TIP3     3209     TP3      H2       HW       0.417000       1.00800           0
     21559 TIP3     3210     TP3      O        OW      -0.834000       16.0000           0
     21560 TIP3     3210     TP3      H1       HW       0.417000       1.00800           0
     21561 TIP3     3210     TP3      H2       HW       0.417000       1.00800           0
     21562 TIP3     3211     TP3      O        OW      -0.834000       16.0000           0
     21563 TIP3     3211     TP3      H1       HW       0.417000       1.00800           0
     21564 TIP3     3211     TP3      H2       HW       0.417000       1.00800           0
     21565 TIP3     3212     TP3      O        OW      -0.834000       16.0000           0
     21566 TIP3     3212     TP3      H1       HW       0.417000       1.00800           0
     21567 TIP3     3212     TP3      H2       HW       0.417000       1.00800           0
     21568 TIP3     3213     TP3      O        OW      -0.834000       16.0000           0
     21569 TIP3     3213     TP3      H1       HW       0.417000       1.00800           0
     21570 TIP3     3213     TP3      H2       HW       0.417000       1.00800           0
     21571 TIP3     3214     TP3      O        OW      -0.834000       16.0000           0
     21572 TIP3     3214     TP3      H1       HW       0.417000       1.00800           0
     21573 TIP3     3214     TP3      H2       HW       0.417000       1.00800           0
     21574 TIP3     3215     TP3      O        OW      -0.834000       16.0000           0
     21575 TIP3     3215     TP3      H1       HW       0.417000       1.00800           0
     21576 TIP3     3215     TP3      H2       HW       0.417000       1.00800           0
     21577 TIP3     3216     TP3      O        OW      -0.834000       16.0000           0
     21578 TIP3     3216     TP3      H1       HW       0.417000       1.00800           0
     21579 TIP3     3216     TP3      H2       HW       0.417000       1.00800           0
     21580 TIP3     3217     TP3      O        OW      -0.834000       16.0000           0
     21581 TIP3     3217     TP3      H1       HW       0.417000       1.00800           0
     21582 TIP3     3217     TP3      H2       HW       0.417000       1.00800           0
     21583 TIP3     3218     TP3      O        OW      -0.834000       16.0000           0
     21584 TIP3     3218     TP3      H1       HW       0.417000       1.00800           0
     21585 TIP3     3218     TP3      H2       HW       0.417000       1.00800           0
     21586 TIP3     3219     TP3      O        OW      -0.834000       16.0000           0
     21587 TIP3     3219     TP3      H1       HW       0.417000       1.00800           0
     21588 TIP3     3219     TP3      H2       HW       0.417000       1.00800           0
     21589 TIP3     3220     TP3      O        OW      -0.834000       16.0000           0
     21590 TIP3     3220     TP3      H1       HW       0.417000       1.00800           0
     21591 TIP3     3220     TP3      H2       HW       0.417000       1.00800           0
     21592 TIP3     3221     TP3      O        OW      -0.834000       16.0000           0
     21593 TIP3     3221     TP3      H1       HW       0.417000       1.00800           0
     21594 TIP3     3221     TP3      H2       HW       0.417000       1.00800           0
     21595 TIP3     3222     TP3      O        OW      -0.834000       16.0000           0
     21596 TIP3     3222     TP3      H1       HW       0.417000       1.00800           0
     21597 TIP3     3222     TP3      H2       HW       0.417000       1.00800           0
     21598 TIP3     3223     TP3      O        OW      -0.834000       16.0000           0
     21599 TIP3     3223     TP3      H1       HW       0.417000       1.00800           0
     21600 TIP3     3223     TP3      H2       HW       0.417000       1.00800           0
     21601 TIP3     3224     TP3      O        OW      -0.834000       16.0000           0
     21602 TIP3     3224     TP3      H1       HW       0.417000       1.00800           0
     21603 TIP3     3224     TP3      H2       HW       0.417000       1.00800           0
     21604 TIP3     3225     TP3      O        OW      -0.834000       16.0000           0
     21605 TIP3     3225     TP3      H1       HW       0.417000       1.00800           0
     21606 TIP3     3225     TP3      H2       HW       0.417000       1.00800           0
     21607 TIP3     3226     TP3      O        OW      -0.834000       16.0000           0
     21608 TIP3     3226     TP3      H1       HW       0.417000       1.00800           0
     21609 TIP3     3226     TP3      H2       HW       0.417000       1.00800           0
     21610 TIP3     3227     TP3      O        OW      -0.834000       16.0000           0
     21611 TIP3     3227     TP3      H1       HW       0.417000       1.00800           0
     21612 TIP3     3227     TP3      H2       HW       0.417000       1.00800           0
     21613 TIP3     3228     TP3      O        OW      -0.834000       16.0000           0
     21614 TIP3     3228     TP3      H1       HW       0.417000       1.00800           0
     21615 TIP3     3228     TP3      H2       HW       0.417000       1.00800           0
     21616 TIP3     3229     TP3      O        OW      -0.834000       16.0000           0
     21617 TIP3     3229     TP3      H1       HW       0.417000       1.00800           0
     21618 TIP3     3229     TP3      H2       HW       0.417000       1.00800           0
     21619 TIP3     3230     TP3      O        OW      -0.834000       16.0000           0
     21620 TIP3     3230     TP3      H1       HW       0.417000       1.00800           0
     21621 TIP3     3230     TP3      H2       HW       0.417000       1.00800           0
     21622 TIP3     3231     TP3      O        OW      -0.834000       16.0000           0
     21623 TIP3     3231     TP3      H1       HW       0.417000       1.00800           0
     21624 TIP3     3231     TP3      H2       HW       0.417000       1.00800           0
     21625 TIP3     3232     TP3      O        OW      -0.834000       16.0000           0
     21626 TIP3     3232     TP3      H1       HW       0.417000       1.00800           0
     21627 TIP3     3232     TP3      H2       HW       0.417000       1.00800           0
     21628 TIP3     3233     TP3      O        OW      -0.834000       16.0000           0
     21629 TIP3     3233     TP3      H1       HW       0.417000       1.00800           0
     21630 TIP3     3233     TP3      H2       HW       0.417000       1.00800           0
     21631 TIP3     3234     TP3      O        OW      -0.834000       16.0000           0
     21632 TIP3     3234     TP3      H1       HW       0.417000       1.00800           0
     21633 TIP3     3234     TP3      H2       HW       0.417000       1.00800           0
     21634 TIP3     3235     TP3      O        OW      -0.834000       16.0000           0
     21635 TIP3     3235     TP3      H1       HW       0.417000       1.00800           0
     21636 TIP3     3235     TP3      H2       HW       0.417000       1.00800           0
     21637 TIP3     3236     TP3      O        OW      -0.834000       16.0000           0
     21638 TIP3     3236     TP3      H1       HW       0.417000       1.00800           0
     21639 TIP3     3236     TP3      H2       HW       0.417000       1.00800           0
     21640 TIP3     3237     TP3      O        OW      -0.834000       16.0000           0
     21641 TIP3     3237     TP3      H1       HW       0.417000       1.00800           0
     21642 TIP3     3237     TP3      H2       HW       0.417000       1.00800           0
     21643 TIP3     3238     TP3      O        OW      -0.834000       16.0000           0
     21644 TIP3     3238     TP3      H1       HW       0.417000       1.00800           0
     21645 TIP3     3238     TP3      H2       HW       0.417000       1.00800           0
     21646 TIP3     3239     TP3      O        OW      -0.834000       16.0000           0
     21647 TIP3     3239     TP3      H1       HW       0.417000       1.00800           0
     21648 TIP3     3239     TP3      H2       HW       0.417000       1.00800           0
     21649 TIP3     3240     TP3      O        OW      -0.834000       16.0000           0
     21650 TIP3     3240     TP3      H1       HW       0.417000       1.00800           0
     21651 TIP3     3240     TP3      H2       HW       0.417000       1.00800           0
     21652 TIP3     3241     TP3      O        OW      -0.834000       16.0000           0
     21653 TIP3     3241     TP3      H1       HW       0.417000       1.00800           0
     21654 TIP3     3241     TP3      H2       HW       0.417000       1.00800           0
     21655 TIP3     3242     TP3      O        OW      -0.834000       16.0000           0
     21656 TIP3     3242     TP3      H1       HW       0.417000       1.00800           0
     21657 TIP3     3242     TP3      H2       HW       0.417000       1.00800           0
     21658 TIP3     3243     TP3      O        OW      -0.834000       16.0000           0
     21659 TIP3     3243     TP3      H1       HW       0.417000       1.00800           0
     21660 TIP3     3243     TP3      H2       HW       0.417000       1.00800           0
     21661 TIP3     3244     TP3      O        OW      -0.834000       16.0000           0
     21662 TIP3     3244     TP3      H1       HW       0.417000       1.00800           0
     21663 TIP3     3244     TP3      H2       HW       0.417000       1.00800           0
     21664 TIP3     3245     TP3      O        OW      -0.834000       16.0000           0
     21665 TIP3     3245     TP3      H1       HW       0.417000       1.00800           0
     21666 TIP3     3245     TP3      H2       HW       0.417000       1.00800           0
     21667 TIP3     3246     TP3      O        OW      -0.834000       16.0000           0
     21668 TIP3     3246     TP3      H1       HW       0.417000       1.00800           0
     21669 TIP3     3246     TP3      H2       HW       0.417000       1.00800           0
     21670 TIP3     3247     TP3      O        OW      -0.834000       16.0000           0
     21671 TIP3     3247     TP3      H1       HW       0.417000       1.00800           0
     21672 TIP3     3247     TP3      H2       HW       0.417000       1.00800           0
     21673 TIP3     3248     TP3      O        OW      -0.834000       16.0000           0
     21674 TIP3     3248     TP3      H1       HW       0.417000       1.00800           0
     21675 TIP3     3248     TP3      H2       HW       0.417000       1.00800           0
     21676 TIP3     3249     TP3      O        OW      -0.834000       16.0000           0
     21677 TIP3     3249     TP3      H1       HW       0.417000       1.00800           0
     21678 TIP3     3249     TP3      H2       HW       0.417000       1.00800           0
     21679 TIP3     3250     TP3      O        OW      -0.834000       16.0000           0
     21680 TIP3     3250     TP3      H1       HW       0.417000       1.00800           0
     21681 TIP3     3250     TP3      H2       HW       0.417000       1.00800           0
     21682 TIP3     3251     TP3      O        OW      -0.834000       16.0000           0
     21683 TIP3     3251     TP3      H1       HW       0.417000       1.00800           0
     21684 TIP3     3251     TP3      H2       HW       0.417000       1.00800           0
     21685 TIP3     3252     TP3      O        OW      -0.834000       16.0000           0
     21686 TIP3     3252     TP3      H1       HW       0.417000       1.00800           0
     21687 TIP3     3252     TP3      H2       HW       0.417000       1.00800           0
     21688 TIP3     3253     TP3      O        OW      -0.834000       16.0000           0
     21689 TIP3     3253     TP3      H1       HW       0.417000       1.00800           0
     21690 TIP3     3253     TP3      H2       HW       0.417000       1.00800           0
     21691 TIP3     3254     TP3      O        OW      -0.834000       16.0000           0
     21692 TIP3     3254     TP3      H1       HW       0.417000       1.00800           0
     21693 TIP3     3254     TP3      H2       HW       0.417000       1.00800           0
     21694 TIP3     3255     TP3      O        OW      -0.834000       16.0000           0
     21695 TIP3     3255     TP3      H1       HW       0.417000       1.00800           0
     21696 TIP3     3255     TP3      H2       HW       0.417000       1.00800           0
     21697 TIP3     3256     TP3      O        OW      -0.834000       16.0000           0
     21698 TIP3     3256     TP3      H1       HW       0.417000       1.00800           0
     21699 TIP3     3256     TP3      H2       HW       0.417000       1.00800           0
     21700 TIP3     3257     TP3      O        OW      -0.834000       16.0000           0
     21701 TIP3     3257     TP3      H1       HW       0.417000       1.00800           0
     21702 TIP3     3257     TP3      H2       HW       0.417000       1.00800           0
     21703 TIP3     3258     TP3      O        OW      -0.834000       16.0000           0
     21704 TIP3     3258     TP3      H1       HW       0.417000       1.00800           0
     21705 TIP3     3258     TP3      H2       HW       0.417000       1.00800           0
     21706 TIP3     3259     TP3      O        OW      -0.834000       16.0000           0
     21707 TIP3     3259     TP3      H1       HW       0.417000       1.00800           0
     21708 TIP3     3259     TP3      H2       HW       0.417000       1.00800           0
     21709 TIP3     3260     TP3      O        OW      -0.834000       16.0000           0
     21710 TIP3     3260     TP3      H1       HW       0.417000       1.00800           0
     21711 TIP3     3260     TP3      H2       HW       0.417000       1.00800           0
     21712 TIP3     3261     TP3      O        OW      -0.834000       16.0000           0
     21713 TIP3     3261     TP3      H1       HW       0.417000       1.00800           0
     21714 TIP3     3261     TP3      H2       HW       0.417000       1.00800           0
     21715 TIP3     3262     TP3      O        OW      -0.834000       16.0000           0
     21716 TIP3     3262     TP3      H1       HW       0.417000       1.00800           0
     21717 TIP3     3262     TP3      H2       HW       0.417000       1.00800           0
     21718 TIP3     3263     TP3      O        OW      -0.834000       16.0000           0
     21719 TIP3     3263     TP3      H1       HW       0.417000       1.00800           0
     21720 TIP3     3263     TP3      H2       HW       0.417000       1.00800           0
     21721 TIP3     3264     TP3      O        OW      -0.834000       16.0000           0
     21722 TIP3     3264     TP3      H1       HW       0.417000       1.00800           0
     21723 TIP3     3264     TP3      H2       HW       0.417000       1.00800           0
     21724 TIP3     3265     TP3      O        OW      -0.834000       16.0000           0
     21725 TIP3     3265     TP3      H1       HW       0.417000       1.00800           0
     21726 TIP3     3265     TP3      H2       HW       0.417000       1.00800           0
     21727 TIP3     3266     TP3      O        OW      -0.834000       16.0000           0
     21728 TIP3     3266     TP3      H1       HW       0.417000       1.00800           0
     21729 TIP3     3266     TP3      H2       HW       0.417000       1.00800           0
     21730 TIP3     3267     TP3      O        OW      -0.834000       16.0000           0
     21731 TIP3     3267     TP3      H1       HW       0.417000       1.00800           0
     21732 TIP3     3267     TP3      H2       HW       0.417000       1.00800           0
     21733 TIP3     3268     TP3      O        OW      -0.834000       16.0000           0
     21734 TIP3     3268     TP3      H1       HW       0.417000       1.00800           0
     21735 TIP3     3268     TP3      H2       HW       0.417000       1.00800           0
     21736 TIP3     3269     TP3      O        OW      -0.834000       16.0000           0
     21737 TIP3     3269     TP3      H1       HW       0.417000       1.00800           0
     21738 TIP3     3269     TP3      H2       HW       0.417000       1.00800           0
     21739 TIP3     3270     TP3      O        OW      -0.834000       16.0000           0
     21740 TIP3     3270     TP3      H1       HW       0.417000       1.00800           0
     21741 TIP3     3270     TP3      H2       HW       0.417000       1.00800           0
     21742 TIP3     3271     TP3      O        OW      -0.834000       16.0000           0
     21743 TIP3     3271     TP3      H1       HW       0.417000       1.00800           0
     21744 TIP3     3271     TP3      H2       HW       0.417000       1.00800           0
     21745 TIP3     3272     TP3      O        OW      -0.834000       16.0000           0
     21746 TIP3     3272     TP3      H1       HW       0.417000       1.00800           0
     21747 TIP3     3272     TP3      H2       HW       0.417000       1.00800           0
     21748 TIP3     3273     TP3      O        OW      -0.834000       16.0000           0
     21749 TIP3     3273     TP3      H1       HW       0.417000       1.00800           0
     21750 TIP3     3273     TP3      H2       HW       0.417000       1.00800           0
     21751 TIP3     3274     TP3      O        OW      -0.834000       16.0000           0
     21752 TIP3     3274     TP3      H1       HW       0.417000       1.00800           0
     21753 TIP3     3274     TP3      H2       HW       0.417000       1.00800           0
     21754 TIP3     3275     TP3      O        OW      -0.834000       16.0000           0
     21755 TIP3     3275     TP3      H1       HW       0.417000       1.00800           0
     21756 TIP3     3275     TP3      H2       HW       0.417000       1.00800           0
     21757 TIP3     3276     TP3      O        OW      -0.834000       16.0000           0
     21758 TIP3     3276     TP3      H1       HW       0.417000       1.00800           0
     21759 TIP3     3276     TP3      H2       HW       0.417000       1.00800           0
     21760 TIP3     3277     TP3      O        OW      -0.834000       16.0000           0
     21761 TIP3     3277     TP3      H1       HW       0.417000       1.00800           0
     21762 TIP3     3277     TP3      H2       HW       0.417000       1.00800           0
     21763 TIP3     3278     TP3      O        OW      -0.834000       16.0000           0
     21764 TIP3     3278     TP3      H1       HW       0.417000       1.00800           0
     21765 TIP3     3278     TP3      H2       HW       0.417000       1.00800           0
     21766 TIP3     3279     TP3      O        OW      -0.834000       16.0000           0
     21767 TIP3     3279     TP3      H1       HW       0.417000       1.00800           0
     21768 TIP3     3279     TP3      H2       HW       0.417000       1.00800           0
     21769 TIP3     3280     TP3      O        OW      -0.834000       16.0000           0
     21770 TIP3     3280     TP3      H1       HW       0.417000       1.00800           0
     21771 TIP3     3280     TP3      H2       HW       0.417000       1.00800           0
     21772 TIP3     3281     TP3      O        OW      -0.834000       16.0000           0
     21773 TIP3     3281     TP3      H1       HW       0.417000       1.00800           0
     21774 TIP3     3281     TP3      H2       HW       0.417000       1.00800           0
     21775 TIP3     3282     TP3      O        OW      -0.834000       16.0000           0
     21776 TIP3     3282     TP3      H1       HW       0.417000       1.00800           0
     21777 TIP3     3282     TP3      H2       HW       0.417000       1.00800           0
     21778 TIP3     3283     TP3      O        OW      -0.834000       16.0000           0
     21779 TIP3     3283     TP3      H1       HW       0.417000       1.00800           0
     21780 TIP3     3283     TP3      H2       HW       0.417000       1.00800           0
     21781 TIP3     3284     TP3      O        OW      -0.834000       16.0000           0
     21782 TIP3     3284     TP3      H1       HW       0.417000       1.00800           0
     21783 TIP3     3284     TP3      H2       HW       0.417000       1.00800           0
     21784 TIP3     3285     TP3      O        OW      -0.834000       16.0000           0
     21785 TIP3     3285     TP3      H1       HW       0.417000       1.00800           0
     21786 TIP3     3285     TP3      H2       HW       0.417000       1.00800           0
     21787 TIP3     3286     TP3      O        OW      -0.834000       16.0000           0
     21788 TIP3     3286     TP3      H1       HW       0.417000       1.00800           0
     21789 TIP3     3286     TP3      H2       HW       0.417000       1.00800           0
     21790 TIP3     3287     TP3      O        OW      -0.834000       16.0000           0
     21791 TIP3     3287     TP3      H1       HW       0.417000       1.00800           0
     21792 TIP3     3287     TP3      H2       HW       0.417000       1.00800           0
     21793 TIP3     3288     TP3      O        OW      -0.834000       16.0000           0
     21794 TIP3     3288     TP3      H1       HW       0.417000       1.00800           0
     21795 TIP3     3288     TP3      H2       HW       0.417000       1.00800           0
     21796 TIP3     3289     TP3      O        OW      -0.834000       16.0000           0
     21797 TIP3     3289     TP3      H1       HW       0.417000       1.00800           0
     21798 TIP3     3289     TP3      H2       HW       0.417000       1.00800           0
     21799 TIP3     3290     TP3      O        OW      -0.834000       16.0000           0
     21800 TIP3     3290     TP3      H1       HW       0.417000       1.00800           0
     21801 TIP3     3290     TP3      H2       HW       0.417000       1.00800           0
     21802 TIP3     3291     TP3      O        OW      -0.834000       16.0000           0
     21803 TIP3     3291     TP3      H1       HW       0.417000       1.00800           0
     21804 TIP3     3291     TP3      H2       HW       0.417000       1.00800           0
     21805 TIP3     3292     TP3      O        OW      -0.834000       16.0000           0
     21806 TIP3     3292     TP3      H1       HW       0.417000       1.00800           0
     21807 TIP3     3292     TP3      H2       HW       0.417000       1.00800           0
     21808 TIP3     3293     TP3      O        OW      -0.834000       16.0000           0
     21809 TIP3     3293     TP3      H1       HW       0.417000       1.00800           0
     21810 TIP3     3293     TP3      H2       HW       0.417000       1.00800           0
     21811 TIP3     3294     TP3      O        OW      -0.834000       16.0000           0
     21812 TIP3     3294     TP3      H1       HW       0.417000       1.00800           0
     21813 TIP3     3294     TP3      H2       HW       0.417000       1.00800           0
     21814 TIP3     3295     TP3      O        OW      -0.834000       16.0000           0
     21815 TIP3     3295     TP3      H1       HW       0.417000       1.00800           0
     21816 TIP3     3295     TP3      H2       HW       0.417000       1.00800           0
     21817 TIP3     3296     TP3      O        OW      -0.834000       16.0000           0
     21818 TIP3     3296     TP3      H1       HW       0.417000       1.00800           0
     21819 TIP3     3296     TP3      H2       HW       0.417000       1.00800           0
     21820 TIP3     3297     TP3      O        OW      -0.834000       16.0000           0
     21821 TIP3     3297     TP3      H1       HW       0.417000       1.00800           0
     21822 TIP3     3297     TP3      H2       HW       0.417000       1.00800           0
     21823 TIP3     3298     TP3      O        OW      -0.834000       16.0000           0
     21824 TIP3     3298     TP3      H1       HW       0.417000       1.00800           0
     21825 TIP3     3298     TP3      H2       HW       0.417000       1.00800           0
     21826 TIP3     3299     TP3      O        OW      -0.834000       16.0000           0
     21827 TIP3     3299     TP3      H1       HW       0.417000       1.00800           0
     21828 TIP3     3299     TP3      H2       HW       0.417000       1.00800           0
     21829 TIP3     3300     TP3      O        OW      -0.834000       16.0000           0
     21830 TIP3     3300     TP3      H1       HW       0.417000       1.00800           0
     21831 TIP3     3300     TP3      H2       HW       0.417000       1.00800           0
     21832 TIP3     3301     TP3      O        OW      -0.834000       16.0000           0
     21833 TIP3     3301     TP3      H1       HW       0.417000       1.00800           0
     21834 TIP3     3301     TP3      H2       HW       0.417000       1.00800           0
     21835 TIP3     3302     TP3      O        OW      -0.834000       16.0000           0
     21836 TIP3     3302     TP3      H1       HW       0.417000       1.00800           0
     21837 TIP3     3302     TP3      H2       HW       0.417000       1.00800           0
     21838 TIP3     3303     TP3      O        OW      -0.834000       16.0000           0
     21839 TIP3     3303     TP3      H1       HW       0.417000       1.00800           0
     21840 TIP3     3303     TP3      H2       HW       0.417000       1.00800           0
     21841 TIP3     3304     TP3      O        OW      -0.834000       16.0000           0
     21842 TIP3     3304     TP3      H1       HW       0.417000       1.00800           0
     21843 TIP3     3304     TP3      H2       HW       0.417000       1.00800           0
     21844 TIP3     3305     TP3      O        OW      -0.834000       16.0000           0
     21845 TIP3     3305     TP3      H1       HW       0.417000       1.00800           0
     21846 TIP3     3305     TP3      H2       HW       0.417000       1.00800           0
     21847 TIP3     3306     TP3      O        OW      -0.834000       16.0000           0
     21848 TIP3     3306     TP3      H1       HW       0.417000       1.00800           0
     21849 TIP3     3306     TP3      H2       HW       0.417000       1.00800           0
     21850 TIP3     3307     TP3      O        OW      -0.834000       16.0000           0
     21851 TIP3     3307     TP3      H1       HW       0.417000       1.00800           0
     21852 TIP3     3307     TP3      H2       HW       0.417000       1.00800           0
     21853 TIP3     3308     TP3      O        OW      -0.834000       16.0000           0
     21854 TIP3     3308     TP3      H1       HW       0.417000       1.00800           0
     21855 TIP3     3308     TP3      H2       HW       0.417000       1.00800           0
     21856 TIP3     3309     TP3      O        OW      -0.834000       16.0000           0
     21857 TIP3     3309     TP3      H1       HW       0.417000       1.00800           0
     21858 TIP3     3309     TP3      H2       HW       0.417000       1.00800           0
     21859 TIP3     3310     TP3      O        OW      -0.834000       16.0000           0
     21860 TIP3     3310     TP3      H1       HW       0.417000       1.00800           0
     21861 TIP3     3310     TP3      H2       HW       0.417000       1.00800           0
     21862 TIP3     3311     TP3      O        OW      -0.834000       16.0000           0
     21863 TIP3     3311     TP3      H1       HW       0.417000       1.00800           0
     21864 TIP3     3311     TP3      H2       HW       0.417000       1.00800           0
     21865 TIP3     3312     TP3      O        OW      -0.834000       16.0000           0
     21866 TIP3     3312     TP3      H1       HW       0.417000       1.00800           0
     21867 TIP3     3312     TP3      H2       HW       0.417000       1.00800           0
     21868 TIP3     3313     TP3      O        OW      -0.834000       16.0000           0
     21869 TIP3     3313     TP3      H1       HW       0.417000       1.00800           0
     21870 TIP3     3313     TP3      H2       HW       0.417000       1.00800           0
     21871 TIP3     3314     TP3      O        OW      -0.834000       16.0000           0
     21872 TIP3     3314     TP3      H1       HW       0.417000       1.00800           0
     21873 TIP3     3314     TP3      H2       HW       0.417000       1.00800           0
     21874 TIP3     3315     TP3      O        OW      -0.834000       16.0000           0
     21875 TIP3     3315     TP3      H1       HW       0.417000       1.00800           0
     21876 TIP3     3315     TP3      H2       HW       0.417000       1.00800           0
     21877 TIP3     3316     TP3      O        OW      -0.834000       16.0000           0
     21878 TIP3     3316     TP3      H1       HW       0.417000       1.00800           0
     21879 TIP3     3316     TP3      H2       HW       0.417000       1.00800           0
     21880 TIP3     3317     TP3      O        OW      -0.834000       16.0000           0
     21881 TIP3     3317     TP3      H1       HW       0.417000       1.00800           0
     21882 TIP3     3317     TP3      H2       HW       0.417000       1.00800           0
     21883 TIP3     3318     TP3      O        OW      -0.834000       16.0000           0
     21884 TIP3     3318     TP3      H1       HW       0.417000       1.00800           0
     21885 TIP3     3318     TP3      H2       HW       0.417000       1.00800           0
     21886 TIP3     3319     TP3      O        OW      -0.834000       16.0000           0
     21887 TIP3     3319     TP3      H1       HW       0.417000       1.00800           0
     21888 TIP3     3319     TP3      H2       HW       0.417000       1.00800           0
     21889 TIP3     3320     TP3      O        OW      -0.834000       16.0000           0
     21890 TIP3     3320     TP3      H1       HW       0.417000       1.00800           0
     21891 TIP3     3320     TP3      H2       HW       0.417000       1.00800           0
     21892 TIP3     3321     TP3      O        OW      -0.834000       16.0000           0
     21893 TIP3     3321     TP3      H1       HW       0.417000       1.00800           0
     21894 TIP3     3321     TP3      H2       HW       0.417000       1.00800           0
     21895 TIP3     3322     TP3      O        OW      -0.834000       16.0000           0
     21896 TIP3     3322     TP3      H1       HW       0.417000       1.00800           0
     21897 TIP3     3322     TP3      H2       HW       0.417000       1.00800           0
     21898 TIP3     3323     TP3      O        OW      -0.834000       16.0000           0
     21899 TIP3     3323     TP3      H1       HW       0.417000       1.00800           0
     21900 TIP3     3323     TP3      H2       HW       0.417000       1.00800           0
     21901 TIP3     3324     TP3      O        OW      -0.834000       16.0000           0
     21902 TIP3     3324     TP3      H1       HW       0.417000       1.00800           0
     21903 TIP3     3324     TP3      H2       HW       0.417000       1.00800           0
     21904 TIP3     3325     TP3      O        OW      -0.834000       16.0000           0
     21905 TIP3     3325     TP3      H1       HW       0.417000       1.00800           0
     21906 TIP3     3325     TP3      H2       HW       0.417000       1.00800           0
     21907 TIP3     3326     TP3      O        OW      -0.834000       16.0000           0
     21908 TIP3     3326     TP3      H1       HW       0.417000       1.00800           0
     21909 TIP3     3326     TP3      H2       HW       0.417000       1.00800           0
     21910 TIP3     3327     TP3      O        OW      -0.834000       16.0000           0
     21911 TIP3     3327     TP3      H1       HW       0.417000       1.00800           0
     21912 TIP3     3327     TP3      H2       HW       0.417000       1.00800           0
     21913 TIP3     3328     TP3      O        OW      -0.834000       16.0000           0
     21914 TIP3     3328     TP3      H1       HW       0.417000       1.00800           0
     21915 TIP3     3328     TP3      H2       HW       0.417000       1.00800           0
     21916 TIP3     3329     TP3      O        OW      -0.834000       16.0000           0
     21917 TIP3     3329     TP3      H1       HW       0.417000       1.00800           0
     21918 TIP3     3329     TP3      H2       HW       0.417000       1.00800           0
     21919 TIP3     3330     TP3      O        OW      -0.834000       16.0000           0
     21920 TIP3     3330     TP3      H1       HW       0.417000       1.00800           0
     21921 TIP3     3330     TP3      H2       HW       0.417000       1.00800           0
     21922 TIP3     3331     TP3      O        OW      -0.834000       16.0000           0
     21923 TIP3     3331     TP3      H1       HW       0.417000       1.00800           0
     21924 TIP3     3331     TP3      H2       HW       0.417000       1.00800           0
     21925 TIP3     3332     TP3      O        OW      -0.834000       16.0000           0
     21926 TIP3     3332     TP3      H1       HW       0.417000       1.00800           0
     21927 TIP3     3332     TP3      H2       HW       0.417000       1.00800           0
     21928 TIP3     3333     TP3      O        OW      -0.834000       16.0000           0
     21929 TIP3     3333     TP3      H1       HW       0.417000       1.00800           0
     21930 TIP3     3333     TP3      H2       HW       0.417000       1.00800           0
     21931 TIP3     3334     TP3      O        OW      -0.834000       16.0000           0
     21932 TIP3     3334     TP3      H1       HW       0.417000       1.00800           0
     21933 TIP3     3334     TP3      H2       HW       0.417000       1.00800           0
     21934 TIP3     3335     TP3      O        OW      -0.834000       16.0000           0
     21935 TIP3     3335     TP3      H1       HW       0.417000       1.00800           0
     21936 TIP3     3335     TP3      H2       HW       0.417000       1.00800           0
     21937 TIP3     3336     TP3      O        OW      -0.834000       16.0000           0
     21938 TIP3     3336     TP3      H1       HW       0.417000       1.00800           0
     21939 TIP3     3336     TP3      H2       HW       0.417000       1.00800           0
     21940 TIP3     3337     TP3      O        OW      -0.834000       16.0000           0
     21941 TIP3     3337     TP3      H1       HW       0.417000       1.00800           0
     21942 TIP3     3337     TP3      H2       HW       0.417000       1.00800           0
     21943 TIP3     3338     TP3      O        OW      -0.834000       16.0000           0
     21944 TIP3     3338     TP3      H1       HW       0.417000       1.00800           0
     21945 TIP3     3338     TP3      H2       HW       0.417000       1.00800           0
     21946 TIP3     3339     TP3      O        OW      -0.834000       16.0000           0
     21947 TIP3     3339     TP3      H1       HW       0.417000       1.00800           0
     21948 TIP3     3339     TP3      H2       HW       0.417000       1.00800           0
     21949 TIP3     3340     TP3      O        OW      -0.834000       16.0000           0
     21950 TIP3     3340     TP3      H1       HW       0.417000       1.00800           0
     21951 TIP3     3340     TP3      H2       HW       0.417000       1.00800           0
     21952 TIP3     3341     TP3      O        OW      -0.834000       16.0000           0
     21953 TIP3     3341     TP3      H1       HW       0.417000       1.00800           0
     21954 TIP3     3341     TP3      H2       HW       0.417000       1.00800           0
     21955 TIP3     3342     TP3      O        OW      -0.834000       16.0000           0
     21956 TIP3     3342     TP3      H1       HW       0.417000       1.00800           0
     21957 TIP3     3342     TP3      H2       HW       0.417000       1.00800           0
     21958 TIP3     3343     TP3      O        OW      -0.834000       16.0000           0
     21959 TIP3     3343     TP3      H1       HW       0.417000       1.00800           0
     21960 TIP3     3343     TP3      H2       HW       0.417000       1.00800           0
     21961 TIP3     3344     TP3      O        OW      -0.834000       16.0000           0
     21962 TIP3     3344     TP3      H1       HW       0.417000       1.00800           0
     21963 TIP3     3344     TP3      H2       HW       0.417000       1.00800           0
     21964 TIP3     3345     TP3      O        OW      -0.834000       16.0000           0
     21965 TIP3     3345     TP3      H1       HW       0.417000       1.00800           0
     21966 TIP3     3345     TP3      H2       HW       0.417000       1.00800           0
     21967 TIP3     3346     TP3      O        OW      -0.834000       16.0000           0
     21968 TIP3     3346     TP3      H1       HW       0.417000       1.00800           0
     21969 TIP3     3346     TP3      H2       HW       0.417000       1.00800           0
     21970 TIP3     3347     TP3      O        OW      -0.834000       16.0000           0
     21971 TIP3     3347     TP3      H1       HW       0.417000       1.00800           0
     21972 TIP3     3347     TP3      H2       HW       0.417000       1.00800           0
     21973 TIP3     3348     TP3      O        OW      -0.834000       16.0000           0
     21974 TIP3     3348     TP3      H1       HW       0.417000       1.00800           0
     21975 TIP3     3348     TP3      H2       HW       0.417000       1.00800           0
     21976 TIP3     3349     TP3      O        OW      -0.834000       16.0000           0
     21977 TIP3     3349     TP3      H1       HW       0.417000       1.00800           0
     21978 TIP3     3349     TP3      H2       HW       0.417000       1.00800           0
     21979 TIP3     3350     TP3      O        OW      -0.834000       16.0000           0
     21980 TIP3     3350     TP3      H1       HW       0.417000       1.00800           0
     21981 TIP3     3350     TP3      H2       HW       0.417000       1.00800           0
     21982 TIP3     3351     TP3      O        OW      -0.834000       16.0000           0
     21983 TIP3     3351     TP3      H1       HW       0.417000       1.00800           0
     21984 TIP3     3351     TP3      H2       HW       0.417000       1.00800           0
     21985 TIP3     3352     TP3      O        OW      -0.834000       16.0000           0
     21986 TIP3     3352     TP3      H1       HW       0.417000       1.00800           0
     21987 TIP3     3352     TP3      H2       HW       0.417000       1.00800           0
     21988 TIP3     3353     TP3      O        OW      -0.834000       16.0000           0
     21989 TIP3     3353     TP3      H1       HW       0.417000       1.00800           0
     21990 TIP3     3353     TP3      H2       HW       0.417000       1.00800           0
     21991 TIP3     3354     TP3      O        OW      -0.834000       16.0000           0
     21992 TIP3     3354     TP3      H1       HW       0.417000       1.00800           0
     21993 TIP3     3354     TP3      H2       HW       0.417000       1.00800           0
     21994 TIP3     3355     TP3      O        OW      -0.834000       16.0000           0
     21995 TIP3     3355     TP3      H1       HW       0.417000       1.00800           0
     21996 TIP3     3355     TP3      H2       HW       0.417000       1.00800           0
     21997 TIP3     3356     TP3      O        OW      -0.834000       16.0000           0
     21998 TIP3     3356     TP3      H1       HW       0.417000       1.00800           0
     21999 TIP3     3356     TP3      H2       HW       0.417000       1.00800           0
     22000 TIP3     3357     TP3      O        OW      -0.834000       16.0000           0
     22001 TIP3     3357     TP3      H1       HW       0.417000       1.00800           0
     22002 TIP3     3357     TP3      H2       HW       0.417000       1.00800           0
     22003 TIP3     3358     TP3      O        OW      -0.834000       16.0000           0
     22004 TIP3     3358     TP3      H1       HW       0.417000       1.00800           0
     22005 TIP3     3358     TP3      H2       HW       0.417000       1.00800           0
     22006 TIP3     3359     TP3      O        OW      -0.834000       16.0000           0
     22007 TIP3     3359     TP3      H1       HW       0.417000       1.00800           0
     22008 TIP3     3359     TP3      H2       HW       0.417000       1.00800           0
     22009 TIP3     3360     TP3      O        OW      -0.834000       16.0000           0
     22010 TIP3     3360     TP3      H1       HW       0.417000       1.00800           0
     22011 TIP3     3360     TP3      H2       HW       0.417000       1.00800           0
     22012 TIP3     3361     TP3      O        OW      -0.834000       16.0000           0
     22013 TIP3     3361     TP3      H1       HW       0.417000       1.00800           0
     22014 TIP3     3361     TP3      H2       HW       0.417000       1.00800           0
     22015 TIP3     3362     TP3      O        OW      -0.834000       16.0000           0
     22016 TIP3     3362     TP3      H1       HW       0.417000       1.00800           0
     22017 TIP3     3362     TP3      H2       HW       0.417000       1.00800           0
     22018 TIP3     3363     TP3      O        OW      -0.834000       16.0000           0
     22019 TIP3     3363     TP3      H1       HW       0.417000       1.00800           0
     22020 TIP3     3363     TP3      H2       HW       0.417000       1.00800           0
     22021 TIP3     3364     TP3      O        OW      -0.834000       16.0000           0
     22022 TIP3     3364     TP3      H1       HW       0.417000       1.00800           0
     22023 TIP3     3364     TP3      H2       HW       0.417000       1.00800           0
     22024 TIP3     3365     TP3      O        OW      -0.834000       16.0000           0
     22025 TIP3     3365     TP3      H1       HW       0.417000       1.00800           0
     22026 TIP3     3365     TP3      H2       HW       0.417000       1.00800           0
     22027 TIP3     3366     TP3      O        OW      -0.834000       16.0000           0
     22028 TIP3     3366     TP3      H1       HW       0.417000       1.00800           0
     22029 TIP3     3366     TP3      H2       HW       0.417000       1.00800           0
     22030 TIP3     3367     TP3      O        OW      -0.834000       16.0000           0
     22031 TIP3     3367     TP3      H1       HW       0.417000       1.00800           0
     22032 TIP3     3367     TP3      H2       HW       0.417000       1.00800           0
     22033 TIP3     3368     TP3      O        OW      -0.834000       16.0000           0
     22034 TIP3     3368     TP3      H1       HW       0.417000       1.00800           0
     22035 TIP3     3368     TP3      H2       HW       0.417000       1.00800           0
     22036 TIP3     3369     TP3      O        OW      -0.834000       16.0000           0
     22037 TIP3     3369     TP3      H1       HW       0.417000       1.00800           0
     22038 TIP3     3369     TP3      H2       HW       0.417000       1.00800           0
     22039 TIP3     3370     TP3      O        OW      -0.834000       16.0000           0
     22040 TIP3     3370     TP3      H1       HW       0.417000       1.00800           0
     22041 TIP3     3370     TP3      H2       HW       0.417000       1.00800           0
     22042 TIP3     3371     TP3      O        OW      -0.834000       16.0000           0
     22043 TIP3     3371     TP3      H1       HW       0.417000       1.00800           0
     22044 TIP3     3371     TP3      H2       HW       0.417000       1.00800           0
     22045 TIP3     3372     TP3      O        OW      -0.834000       16.0000           0
     22046 TIP3     3372     TP3      H1       HW       0.417000       1.00800           0
     22047 TIP3     3372     TP3      H2       HW       0.417000       1.00800           0
     22048 TIP3     3373     TP3      O        OW      -0.834000       16.0000           0
     22049 TIP3     3373     TP3      H1       HW       0.417000       1.00800           0
     22050 TIP3     3373     TP3      H2       HW       0.417000       1.00800           0
     22051 TIP3     3374     TP3      O        OW      -0.834000       16.0000           0
     22052 TIP3     3374     TP3      H1       HW       0.417000       1.00800           0
     22053 TIP3     3374     TP3      H2       HW       0.417000       1.00800           0
     22054 TIP3     3375     TP3      O        OW      -0.834000       16.0000           0
     22055 TIP3     3375     TP3      H1       HW       0.417000       1.00800           0
     22056 TIP3     3375     TP3      H2       HW       0.417000       1.00800           0
     22057 TIP3     3376     TP3      O        OW      -0.834000       16.0000           0
     22058 TIP3     3376     TP3      H1       HW       0.417000       1.00800           0
     22059 TIP3     3376     TP3      H2       HW       0.417000       1.00800           0
     22060 TIP3     3377     TP3      O        OW      -0.834000       16.0000           0
     22061 TIP3     3377     TP3      H1       HW       0.417000       1.00800           0
     22062 TIP3     3377     TP3      H2       HW       0.417000       1.00800           0
     22063 TIP3     3378     TP3      O        OW      -0.834000       16.0000           0
     22064 TIP3     3378     TP3      H1       HW       0.417000       1.00800           0
     22065 TIP3     3378     TP3      H2       HW       0.417000       1.00800           0
     22066 TIP3     3379     TP3      O        OW      -0.834000       16.0000           0
     22067 TIP3     3379     TP3      H1       HW       0.417000       1.00800           0
     22068 TIP3     3379     TP3      H2       HW       0.417000       1.00800           0
     22069 TIP3     3380     TP3      O        OW      -0.834000       16.0000           0
     22070 TIP3     3380     TP3      H1       HW       0.417000       1.00800           0
     22071 TIP3     3380     TP3      H2       HW       0.417000       1.00800           0
     22072 TIP3     3381     TP3      O        OW      -0.834000       16.0000           0
     22073 TIP3     3381     TP3      H1       HW       0.417000       1.00800           0
     22074 TIP3     3381     TP3      H2       HW       0.417000       1.00800           0
     22075 TIP3     3382     TP3      O        OW      -0.834000       16.0000           0
     22076 TIP3     3382     TP3      H1       HW       0.417000       1.00800           0
     22077 TIP3     3382     TP3      H2       HW       0.417000       1.00800           0
     22078 TIP3     3383     TP3      O        OW      -0.834000       16.0000           0
     22079 TIP3     3383     TP3      H1       HW       0.417000       1.00800           0
     22080 TIP3     3383     TP3      H2       HW       0.417000       1.00800           0
     22081 TIP3     3384     TP3      O        OW      -0.834000       16.0000           0
     22082 TIP3     3384     TP3      H1       HW       0.417000       1.00800           0
     22083 TIP3     3384     TP3      H2       HW       0.417000       1.00800           0
     22084 TIP3     3385     TP3      O        OW      -0.834000       16.0000           0
     22085 TIP3     3385     TP3      H1       HW       0.417000       1.00800           0
     22086 TIP3     3385     TP3      H2       HW       0.417000       1.00800           0
     22087 TIP3     3386     TP3      O        OW      -0.834000       16.0000           0
     22088 TIP3     3386     TP3      H1       HW       0.417000       1.00800           0
     22089 TIP3     3386     TP3      H2       HW       0.417000       1.00800           0
     22090 TIP3     3387     TP3      O        OW      -0.834000       16.0000           0
     22091 TIP3     3387     TP3      H1       HW       0.417000       1.00800           0
     22092 TIP3     3387     TP3      H2       HW       0.417000       1.00800           0
     22093 TIP3     3388     TP3      O        OW      -0.834000       16.0000           0
     22094 TIP3     3388     TP3      H1       HW       0.417000       1.00800           0
     22095 TIP3     3388     TP3      H2       HW       0.417000       1.00800           0
     22096 TIP3     3389     TP3      O        OW      -0.834000       16.0000           0
     22097 TIP3     3389     TP3      H1       HW       0.417000       1.00800           0
     22098 TIP3     3389     TP3      H2       HW       0.417000       1.00800           0
     22099 TIP3     3390     TP3      O        OW      -0.834000       16.0000           0
     22100 TIP3     3390     TP3      H1       HW       0.417000       1.00800           0
     22101 TIP3     3390     TP3      H2       HW       0.417000       1.00800           0
     22102 TIP3     3391     TP3      O        OW      -0.834000       16.0000           0
     22103 TIP3     3391     TP3      H1       HW       0.417000       1.00800           0
     22104 TIP3     3391     TP3      H2       HW       0.417000       1.00800           0
     22105 TIP3     3392     TP3      O        OW      -0.834000       16.0000           0
     22106 TIP3     3392     TP3      H1       HW       0.417000       1.00800           0
     22107 TIP3     3392     TP3      H2       HW       0.417000       1.00800           0
     22108 TIP3     3393     TP3      O        OW      -0.834000       16.0000           0
     22109 TIP3     3393     TP3      H1       HW       0.417000       1.00800           0
     22110 TIP3     3393     TP3      H2       HW       0.417000       1.00800           0
     22111 TIP3     3394     TP3      O        OW      -0.834000       16.0000           0
     22112 TIP3     3394     TP3      H1       HW       0.417000       1.00800           0
     22113 TIP3     3394     TP3      H2       HW       0.417000       1.00800           0
     22114 TIP3     3395     TP3      O        OW      -0.834000       16.0000           0
     22115 TIP3     3395     TP3      H1       HW       0.417000       1.00800           0
     22116 TIP3     3395     TP3      H2       HW       0.417000       1.00800           0
     22117 TIP3     3396     TP3      O        OW      -0.834000       16.0000           0
     22118 TIP3     3396     TP3      H1       HW       0.417000       1.00800           0
     22119 TIP3     3396     TP3      H2       HW       0.417000       1.00800           0
     22120 TIP3     3397     TP3      O        OW      -0.834000       16.0000           0
     22121 TIP3     3397     TP3      H1       HW       0.417000       1.00800           0
     22122 TIP3     3397     TP3      H2       HW       0.417000       1.00800           0
     22123 TIP3     3398     TP3      O        OW      -0.834000       16.0000           0
     22124 TIP3     3398     TP3      H1       HW       0.417000       1.00800           0
     22125 TIP3     3398     TP3      H2       HW       0.417000       1.00800           0
     22126 TIP3     3399     TP3      O        OW      -0.834000       16.0000           0
     22127 TIP3     3399     TP3      H1       HW       0.417000       1.00800           0
     22128 TIP3     3399     TP3      H2       HW       0.417000       1.00800           0
     22129 TIP3     3400     TP3      O        OW      -0.834000       16.0000           0
     22130 TIP3     3400     TP3      H1       HW       0.417000       1.00800           0
     22131 TIP3     3400     TP3      H2       HW       0.417000       1.00800           0
     22132 TIP3     3401     TP3      O        OW      -0.834000       16.0000           0
     22133 TIP3     3401     TP3      H1       HW       0.417000       1.00800           0
     22134 TIP3     3401     TP3      H2       HW       0.417000       1.00800           0
     22135 TIP3     3402     TP3      O        OW      -0.834000       16.0000           0
     22136 TIP3     3402     TP3      H1       HW       0.417000       1.00800           0
     22137 TIP3     3402     TP3      H2       HW       0.417000       1.00800           0
     22138 TIP3     3403     TP3      O        OW      -0.834000       16.0000           0
     22139 TIP3     3403     TP3      H1       HW       0.417000       1.00800           0
     22140 TIP3     3403     TP3      H2       HW       0.417000       1.00800           0
     22141 TIP3     3404     TP3      O        OW      -0.834000       16.0000           0
     22142 TIP3     3404     TP3      H1       HW       0.417000       1.00800           0
     22143 TIP3     3404     TP3      H2       HW       0.417000       1.00800           0
     22144 TIP3     3405     TP3      O        OW      -0.834000       16.0000           0
     22145 TIP3     3405     TP3      H1       HW       0.417000       1.00800           0
     22146 TIP3     3405     TP3      H2       HW       0.417000       1.00800           0
     22147 TIP3     3406     TP3      O        OW      -0.834000       16.0000           0
     22148 TIP3     3406     TP3      H1       HW       0.417000       1.00800           0
     22149 TIP3     3406     TP3      H2       HW       0.417000       1.00800           0
     22150 TIP3     3407     TP3      O        OW      -0.834000       16.0000           0
     22151 TIP3     3407     TP3      H1       HW       0.417000       1.00800           0
     22152 TIP3     3407     TP3      H2       HW       0.417000       1.00800           0
     22153 TIP3     3408     TP3      O        OW      -0.834000       16.0000           0
     22154 TIP3     3408     TP3      H1       HW       0.417000       1.00800           0
     22155 TIP3     3408     TP3      H2       HW       0.417000       1.00800           0
     22156 TIP3     3409     TP3      O        OW      -0.834000       16.0000           0
     22157 TIP3     3409     TP3      H1       HW       0.417000       1.00800           0
     22158 TIP3     3409     TP3      H2       HW       0.417000       1.00800           0
     22159 TIP3     3410     TP3      O        OW      -0.834000       16.0000           0
     22160 TIP3     3410     TP3      H1       HW       0.417000       1.00800           0
     22161 TIP3     3410     TP3      H2       HW       0.417000       1.00800           0
     22162 TIP3     3411     TP3      O        OW      -0.834000       16.0000           0
     22163 TIP3     3411     TP3      H1       HW       0.417000       1.00800           0
     22164 TIP3     3411     TP3      H2       HW       0.417000       1.00800           0
     22165 TIP3     3412     TP3      O        OW      -0.834000       16.0000           0
     22166 TIP3     3412     TP3      H1       HW       0.417000       1.00800           0
     22167 TIP3     3412     TP3      H2       HW       0.417000       1.00800           0
     22168 TIP3     3413     TP3      O        OW      -0.834000       16.0000           0
     22169 TIP3     3413     TP3      H1       HW       0.417000       1.00800           0
     22170 TIP3     3413     TP3      H2       HW       0.417000       1.00800           0
     22171 TIP3     3414     TP3      O        OW      -0.834000       16.0000           0
     22172 TIP3     3414     TP3      H1       HW       0.417000       1.00800           0
     22173 TIP3     3414     TP3      H2       HW       0.417000       1.00800           0
     22174 TIP3     3415     TP3      O        OW      -0.834000       16.0000           0
     22175 TIP3     3415     TP3      H1       HW       0.417000       1.00800           0
     22176 TIP3     3415     TP3      H2       HW       0.417000       1.00800           0
     22177 TIP3     3416     TP3      O        OW      -0.834000       16.0000           0
     22178 TIP3     3416     TP3      H1       HW       0.417000       1.00800           0
     22179 TIP3     3416     TP3      H2       HW       0.417000       1.00800           0
     22180 TIP3     3417     TP3      O        OW      -0.834000       16.0000           0
     22181 TIP3     3417     TP3      H1       HW       0.417000       1.00800           0
     22182 TIP3     3417     TP3      H2       HW       0.417000       1.00800           0
     22183 TIP3     3418     TP3      O        OW      -0.834000       16.0000           0
     22184 TIP3     3418     TP3      H1       HW       0.417000       1.00800           0
     22185 TIP3     3418     TP3      H2       HW       0.417000       1.00800           0
     22186 TIP3     3419     TP3      O        OW      -0.834000       16.0000           0
     22187 TIP3     3419     TP3      H1       HW       0.417000       1.00800           0
     22188 TIP3     3419     TP3      H2       HW       0.417000       1.00800           0
     22189 TIP3     3420     TP3      O        OW      -0.834000       16.0000           0
     22190 TIP3     3420     TP3      H1       HW       0.417000       1.00800           0
     22191 TIP3     3420     TP3      H2       HW       0.417000       1.00800           0
     22192 TIP3     3421     TP3      O        OW      -0.834000       16.0000           0
     22193 TIP3     3421     TP3      H1       HW       0.417000       1.00800           0
     22194 TIP3     3421     TP3      H2       HW       0.417000       1.00800           0
     22195 TIP3     3422     TP3      O        OW      -0.834000       16.0000           0
     22196 TIP3     3422     TP3      H1       HW       0.417000       1.00800           0
     22197 TIP3     3422     TP3      H2       HW       0.417000       1.00800           0
     22198 TIP3     3423     TP3      O        OW      -0.834000       16.0000           0
     22199 TIP3     3423     TP3      H1       HW       0.417000       1.00800           0
     22200 TIP3     3423     TP3      H2       HW       0.417000       1.00800           0
     22201 TIP3     3424     TP3      O        OW      -0.834000       16.0000           0
     22202 TIP3     3424     TP3      H1       HW       0.417000       1.00800           0
     22203 TIP3     3424     TP3      H2       HW       0.417000       1.00800           0
     22204 TIP3     3425     TP3      O        OW      -0.834000       16.0000           0
     22205 TIP3     3425     TP3      H1       HW       0.417000       1.00800           0
     22206 TIP3     3425     TP3      H2       HW       0.417000       1.00800           0
     22207 TIP3     3426     TP3      O        OW      -0.834000       16.0000           0
     22208 TIP3     3426     TP3      H1       HW       0.417000       1.00800           0
     22209 TIP3     3426     TP3      H2       HW       0.417000       1.00800           0
     22210 TIP3     3427     TP3      O        OW      -0.834000       16.0000           0
     22211 TIP3     3427     TP3      H1       HW       0.417000       1.00800           0
     22212 TIP3     3427     TP3      H2       HW       0.417000       1.00800           0
     22213 TIP3     3428     TP3      O        OW      -0.834000       16.0000           0
     22214 TIP3     3428     TP3      H1       HW       0.417000       1.00800           0
     22215 TIP3     3428     TP3      H2       HW       0.417000       1.00800           0
     22216 TIP3     3429     TP3      O        OW      -0.834000       16.0000           0
     22217 TIP3     3429     TP3      H1       HW       0.417000       1.00800           0
     22218 TIP3     3429     TP3      H2       HW       0.417000       1.00800           0
     22219 TIP3     3430     TP3      O        OW      -0.834000       16.0000           0
     22220 TIP3     3430     TP3      H1       HW       0.417000       1.00800           0
     22221 TIP3     3430     TP3      H2       HW       0.417000       1.00800           0
     22222 TIP3     3431     TP3      O        OW      -0.834000       16.0000           0
     22223 TIP3     3431     TP3      H1       HW       0.417000       1.00800           0
     22224 TIP3     3431     TP3      H2       HW       0.417000       1.00800           0
     22225 TIP3     3432     TP3      O        OW      -0.834000       16.0000           0
     22226 TIP3     3432     TP3      H1       HW       0.417000       1.00800           0
     22227 TIP3     3432     TP3      H2       HW       0.417000       1.00800           0
     22228 TIP3     3433     TP3      O        OW      -0.834000       16.0000           0
     22229 TIP3     3433     TP3      H1       HW       0.417000       1.00800           0
     22230 TIP3     3433     TP3      H2       HW       0.417000       1.00800           0
     22231 TIP3     3434     TP3      O        OW      -0.834000       16.0000           0
     22232 TIP3     3434     TP3      H1       HW       0.417000       1.00800           0
     22233 TIP3     3434     TP3      H2       HW       0.417000       1.00800           0
     22234 TIP3     3435     TP3      O        OW      -0.834000       16.0000           0
     22235 TIP3     3435     TP3      H1       HW       0.417000       1.00800           0
     22236 TIP3     3435     TP3      H2       HW       0.417000       1.00800           0
     22237 TIP3     3436     TP3      O        OW      -0.834000       16.0000           0
     22238 TIP3     3436     TP3      H1       HW       0.417000       1.00800           0
     22239 TIP3     3436     TP3      H2       HW       0.417000       1.00800           0
     22240 TIP3     3437     TP3      O        OW      -0.834000       16.0000           0
     22241 TIP3     3437     TP3      H1       HW       0.417000       1.00800           0
     22242 TIP3     3437     TP3      H2       HW       0.417000       1.00800           0
     22243 TIP3     3438     TP3      O        OW      -0.834000       16.0000           0
     22244 TIP3     3438     TP3      H1       HW       0.417000       1.00800           0
     22245 TIP3     3438     TP3      H2       HW       0.417000       1.00800           0
     22246 TIP3     3439     TP3      O        OW      -0.834000       16.0000           0
     22247 TIP3     3439     TP3      H1       HW       0.417000       1.00800           0
     22248 TIP3     3439     TP3      H2       HW       0.417000       1.00800           0
     22249 TIP3     3440     TP3      O        OW      -0.834000       16.0000           0
     22250 TIP3     3440     TP3      H1       HW       0.417000       1.00800           0
     22251 TIP3     3440     TP3      H2       HW       0.417000       1.00800           0
     22252 TIP3     3441     TP3      O        OW      -0.834000       16.0000           0
     22253 TIP3     3441     TP3      H1       HW       0.417000       1.00800           0
     22254 TIP3     3441     TP3      H2       HW       0.417000       1.00800           0
     22255 TIP3     3442     TP3      O        OW      -0.834000       16.0000           0
     22256 TIP3     3442     TP3      H1       HW       0.417000       1.00800           0
     22257 TIP3     3442     TP3      H2       HW       0.417000       1.00800           0
     22258 TIP3     3443     TP3      O        OW      -0.834000       16.0000           0
     22259 TIP3     3443     TP3      H1       HW       0.417000       1.00800           0
     22260 TIP3     3443     TP3      H2       HW       0.417000       1.00800           0
     22261 TIP3     3444     TP3      O        OW      -0.834000       16.0000           0
     22262 TIP3     3444     TP3      H1       HW       0.417000       1.00800           0
     22263 TIP3     3444     TP3      H2       HW       0.417000       1.00800           0
     22264 TIP3     3445     TP3      O        OW      -0.834000       16.0000           0
     22265 TIP3     3445     TP3      H1       HW       0.417000       1.00800           0
     22266 TIP3     3445     TP3      H2       HW       0.417000       1.00800           0
     22267 TIP3     3446     TP3      O        OW      -0.834000       16.0000           0
     22268 TIP3     3446     TP3      H1       HW       0.417000       1.00800           0
     22269 TIP3     3446     TP3      H2       HW       0.417000       1.00800           0
     22270 TIP3     3447     TP3      O        OW      -0.834000       16.0000           0
     22271 TIP3     3447     TP3      H1       HW       0.417000       1.00800           0
     22272 TIP3     3447     TP3      H2       HW       0.417000       1.00800           0
     22273 TIP3     3448     TP3      O        OW      -0.834000       16.0000           0
     22274 TIP3     3448     TP3      H1       HW       0.417000       1.00800           0
     22275 TIP3     3448     TP3      H2       HW       0.417000       1.00800           0
     22276 TIP3     3449     TP3      O        OW      -0.834000       16.0000           0
     22277 TIP3     3449     TP3      H1       HW       0.417000       1.00800           0
     22278 TIP3     3449     TP3      H2       HW       0.417000       1.00800           0
     22279 TIP3     3450     TP3      O        OW      -0.834000       16.0000           0
     22280 TIP3     3450     TP3      H1       HW       0.417000       1.00800           0
     22281 TIP3     3450     TP3      H2       HW       0.417000       1.00800           0
     22282 TIP3     3451     TP3      O        OW      -0.834000       16.0000           0
     22283 TIP3     3451     TP3      H1       HW       0.417000       1.00800           0
     22284 TIP3     3451     TP3      H2       HW       0.417000       1.00800           0
     22285 TIP3     3452     TP3      O        OW      -0.834000       16.0000           0
     22286 TIP3     3452     TP3      H1       HW       0.417000       1.00800           0
     22287 TIP3     3452     TP3      H2       HW       0.417000       1.00800           0
     22288 TIP3     3453     TP3      O        OW      -0.834000       16.0000           0
     22289 TIP3     3453     TP3      H1       HW       0.417000       1.00800           0
     22290 TIP3     3453     TP3      H2       HW       0.417000       1.00800           0
     22291 TIP3     3454     TP3      O        OW      -0.834000       16.0000           0
     22292 TIP3     3454     TP3      H1       HW       0.417000       1.00800           0
     22293 TIP3     3454     TP3      H2       HW       0.417000       1.00800           0
     22294 TIP3     3455     TP3      O        OW      -0.834000       16.0000           0
     22295 TIP3     3455     TP3      H1       HW       0.417000       1.00800           0
     22296 TIP3     3455     TP3      H2       HW       0.417000       1.00800           0
     22297 TIP3     3456     TP3      O        OW      -0.834000       16.0000           0
     22298 TIP3     3456     TP3      H1       HW       0.417000       1.00800           0
     22299 TIP3     3456     TP3      H2       HW       0.417000       1.00800           0
     22300 TIP3     3457     TP3      O        OW      -0.834000       16.0000           0
     22301 TIP3     3457     TP3      H1       HW       0.417000       1.00800           0
     22302 TIP3     3457     TP3      H2       HW       0.417000       1.00800           0
     22303 TIP3     3458     TP3      O        OW      -0.834000       16.0000           0
     22304 TIP3     3458     TP3      H1       HW       0.417000       1.00800           0
     22305 TIP3     3458     TP3      H2       HW       0.417000       1.00800           0
     22306 TIP3     3459     TP3      O        OW      -0.834000       16.0000           0
     22307 TIP3     3459     TP3      H1       HW       0.417000       1.00800           0
     22308 TIP3     3459     TP3      H2       HW       0.417000       1.00800           0
     22309 TIP3     3460     TP3      O        OW      -0.834000       16.0000           0
     22310 TIP3     3460     TP3      H1       HW       0.417000       1.00800           0
     22311 TIP3     3460     TP3      H2       HW       0.417000       1.00800           0
     22312 TIP3     3461     TP3      O        OW      -0.834000       16.0000           0
     22313 TIP3     3461     TP3      H1       HW       0.417000       1.00800           0
     22314 TIP3     3461     TP3      H2       HW       0.417000       1.00800           0
     22315 TIP3     3462     TP3      O        OW      -0.834000       16.0000           0
     22316 TIP3     3462     TP3      H1       HW       0.417000       1.00800           0
     22317 TIP3     3462     TP3      H2       HW       0.417000       1.00800           0
     22318 TIP3     3463     TP3      O        OW      -0.834000       16.0000           0
     22319 TIP3     3463     TP3      H1       HW       0.417000       1.00800           0
     22320 TIP3     3463     TP3      H2       HW       0.417000       1.00800           0
     22321 TIP3     3464     TP3      O        OW      -0.834000       16.0000           0
     22322 TIP3     3464     TP3      H1       HW       0.417000       1.00800           0
     22323 TIP3     3464     TP3      H2       HW       0.417000       1.00800           0
     22324 TIP3     3465     TP3      O        OW      -0.834000       16.0000           0
     22325 TIP3     3465     TP3      H1       HW       0.417000       1.00800           0
     22326 TIP3     3465     TP3      H2       HW       0.417000       1.00800           0
     22327 TIP3     3466     TP3      O        OW      -0.834000       16.0000           0
     22328 TIP3     3466     TP3      H1       HW       0.417000       1.00800           0
     22329 TIP3     3466     TP3      H2       HW       0.417000       1.00800           0
     22330 TIP3     3467     TP3      O        OW      -0.834000       16.0000           0
     22331 TIP3     3467     TP3      H1       HW       0.417000       1.00800           0
     22332 TIP3     3467     TP3      H2       HW       0.417000       1.00800           0
     22333 TIP3     3468     TP3      O        OW      -0.834000       16.0000           0
     22334 TIP3     3468     TP3      H1       HW       0.417000       1.00800           0
     22335 TIP3     3468     TP3      H2       HW       0.417000       1.00800           0
     22336 TIP3     3469     TP3      O        OW      -0.834000       16.0000           0
     22337 TIP3     3469     TP3      H1       HW       0.417000       1.00800           0
     22338 TIP3     3469     TP3      H2       HW       0.417000       1.00800           0
     22339 TIP3     3470     TP3      O        OW      -0.834000       16.0000           0
     22340 TIP3     3470     TP3      H1       HW       0.417000       1.00800           0
     22341 TIP3     3470     TP3      H2       HW       0.417000       1.00800           0
     22342 TIP3     3471     TP3      O        OW      -0.834000       16.0000           0
     22343 TIP3     3471     TP3      H1       HW       0.417000       1.00800           0
     22344 TIP3     3471     TP3      H2       HW       0.417000       1.00800           0
     22345 TIP3     3472     TP3      O        OW      -0.834000       16.0000           0
     22346 TIP3     3472     TP3      H1       HW       0.417000       1.00800           0
     22347 TIP3     3472     TP3      H2       HW       0.417000       1.00800           0
     22348 TIP3     3473     TP3      O        OW      -0.834000       16.0000           0
     22349 TIP3     3473     TP3      H1       HW       0.417000       1.00800           0
     22350 TIP3     3473     TP3      H2       HW       0.417000       1.00800           0
     22351 TIP3     3474     TP3      O        OW      -0.834000       16.0000           0
     22352 TIP3     3474     TP3      H1       HW       0.417000       1.00800           0
     22353 TIP3     3474     TP3      H2       HW       0.417000       1.00800           0
     22354 TIP3     3475     TP3      O        OW      -0.834000       16.0000           0
     22355 TIP3     3475     TP3      H1       HW       0.417000       1.00800           0
     22356 TIP3     3475     TP3      H2       HW       0.417000       1.00800           0
     22357 TIP3     3476     TP3      O        OW      -0.834000       16.0000           0
     22358 TIP3     3476     TP3      H1       HW       0.417000       1.00800           0
     22359 TIP3     3476     TP3      H2       HW       0.417000       1.00800           0
     22360 TIP3     3477     TP3      O        OW      -0.834000       16.0000           0
     22361 TIP3     3477     TP3      H1       HW       0.417000       1.00800           0
     22362 TIP3     3477     TP3      H2       HW       0.417000       1.00800           0
     22363 TIP3     3478     TP3      O        OW      -0.834000       16.0000           0
     22364 TIP3     3478     TP3      H1       HW       0.417000       1.00800           0
     22365 TIP3     3478     TP3      H2       HW       0.417000       1.00800           0
     22366 TIP3     3479     TP3      O        OW      -0.834000       16.0000           0
     22367 TIP3     3479     TP3      H1       HW       0.417000       1.00800           0
     22368 TIP3     3479     TP3      H2       HW       0.417000       1.00800           0
     22369 TIP3     3480     TP3      O        OW      -0.834000       16.0000           0
     22370 TIP3     3480     TP3      H1       HW       0.417000       1.00800           0
     22371 TIP3     3480     TP3      H2       HW       0.417000       1.00800           0
     22372 TIP3     3481     TP3      O        OW      -0.834000       16.0000           0
     22373 TIP3     3481     TP3      H1       HW       0.417000       1.00800           0
     22374 TIP3     3481     TP3      H2       HW       0.417000       1.00800           0
     22375 TIP3     3482     TP3      O        OW      -0.834000       16.0000           0
     22376 TIP3     3482     TP3      H1       HW       0.417000       1.00800           0
     22377 TIP3     3482     TP3      H2       HW       0.417000       1.00800           0
     22378 TIP3     3483     TP3      O        OW      -0.834000       16.0000           0
     22379 TIP3     3483     TP3      H1       HW       0.417000       1.00800           0
     22380 TIP3     3483     TP3      H2       HW       0.417000       1.00800           0
     22381 TIP3     3484     TP3      O        OW      -0.834000       16.0000           0
     22382 TIP3     3484     TP3      H1       HW       0.417000       1.00800           0
     22383 TIP3     3484     TP3      H2       HW       0.417000       1.00800           0
     22384 TIP3     3485     TP3      O        OW      -0.834000       16.0000           0
     22385 TIP3     3485     TP3      H1       HW       0.417000       1.00800           0
     22386 TIP3     3485     TP3      H2       HW       0.417000       1.00800           0
     22387 TIP3     3486     TP3      O        OW      -0.834000       16.0000           0
     22388 TIP3     3486     TP3      H1       HW       0.417000       1.00800           0
     22389 TIP3     3486     TP3      H2       HW       0.417000       1.00800           0
     22390 TIP3     3487     TP3      O        OW      -0.834000       16.0000           0
     22391 TIP3     3487     TP3      H1       HW       0.417000       1.00800           0
     22392 TIP3     3487     TP3      H2       HW       0.417000       1.00800           0
     22393 TIP3     3488     TP3      O        OW      -0.834000       16.0000           0
     22394 TIP3     3488     TP3      H1       HW       0.417000       1.00800           0
     22395 TIP3     3488     TP3      H2       HW       0.417000       1.00800           0
     22396 TIP3     3489     TP3      O        OW      -0.834000       16.0000           0
     22397 TIP3     3489     TP3      H1       HW       0.417000       1.00800           0
     22398 TIP3     3489     TP3      H2       HW       0.417000       1.00800           0
     22399 TIP3     3490     TP3      O        OW      -0.834000       16.0000           0
     22400 TIP3     3490     TP3      H1       HW       0.417000       1.00800           0
     22401 TIP3     3490     TP3      H2       HW       0.417000       1.00800           0
     22402 TIP3     3491     TP3      O        OW      -0.834000       16.0000           0
     22403 TIP3     3491     TP3      H1       HW       0.417000       1.00800           0
     22404 TIP3     3491     TP3      H2       HW       0.417000       1.00800           0
     22405 TIP3     3492     TP3      O        OW      -0.834000       16.0000           0
     22406 TIP3     3492     TP3      H1       HW       0.417000       1.00800           0
     22407 TIP3     3492     TP3      H2       HW       0.417000       1.00800           0
     22408 TIP3     3493     TP3      O        OW      -0.834000       16.0000           0
     22409 TIP3     3493     TP3      H1       HW       0.417000       1.00800           0
     22410 TIP3     3493     TP3      H2       HW       0.417000       1.00800           0
     22411 TIP3     3494     TP3      O        OW      -0.834000       16.0000           0
     22412 TIP3     3494     TP3      H1       HW       0.417000       1.00800           0
     22413 TIP3     3494     TP3      H2       HW       0.417000       1.00800           0
     22414 TIP3     3495     TP3      O        OW      -0.834000       16.0000           0
     22415 TIP3     3495     TP3      H1       HW       0.417000       1.00800           0
     22416 TIP3     3495     TP3      H2       HW       0.417000       1.00800           0
     22417 TIP3     3496     TP3      O        OW      -0.834000       16.0000           0
     22418 TIP3     3496     TP3      H1       HW       0.417000       1.00800           0
     22419 TIP3     3496     TP3      H2       HW       0.417000       1.00800           0
     22420 TIP3     3497     TP3      O        OW      -0.834000       16.0000           0
     22421 TIP3     3497     TP3      H1       HW       0.417000       1.00800           0
     22422 TIP3     3497     TP3      H2       HW       0.417000       1.00800           0
     22423 TIP3     3498     TP3      O        OW      -0.834000       16.0000           0
     22424 TIP3     3498     TP3      H1       HW       0.417000       1.00800           0
     22425 TIP3     3498     TP3      H2       HW       0.417000       1.00800           0
     22426 TIP3     3499     TP3      O        OW      -0.834000       16.0000           0
     22427 TIP3     3499     TP3      H1       HW       0.417000       1.00800           0
     22428 TIP3     3499     TP3      H2       HW       0.417000       1.00800           0
     22429 TIP3     3500     TP3      O        OW      -0.834000       16.0000           0
     22430 TIP3     3500     TP3      H1       HW       0.417000       1.00800           0
     22431 TIP3     3500     TP3      H2       HW       0.417000       1.00800           0
     22432 TIP3     3501     TP3      O        OW      -0.834000       16.0000           0
     22433 TIP3     3501     TP3      H1       HW       0.417000       1.00800           0
     22434 TIP3     3501     TP3      H2       HW       0.417000       1.00800           0
     22435 TIP3     3502     TP3      O        OW      -0.834000       16.0000           0
     22436 TIP3     3502     TP3      H1       HW       0.417000       1.00800           0
     22437 TIP3     3502     TP3      H2       HW       0.417000       1.00800           0
     22438 TIP3     3503     TP3      O        OW      -0.834000       16.0000           0
     22439 TIP3     3503     TP3      H1       HW       0.417000       1.00800           0
     22440 TIP3     3503     TP3      H2       HW       0.417000       1.00800           0
     22441 TIP3     3504     TP3      O        OW      -0.834000       16.0000           0
     22442 TIP3     3504     TP3      H1       HW       0.417000       1.00800           0
     22443 TIP3     3504     TP3      H2       HW       0.417000       1.00800           0
     22444 TIP3     3505     TP3      O        OW      -0.834000       16.0000           0
     22445 TIP3     3505     TP3      H1       HW       0.417000       1.00800           0
     22446 TIP3     3505     TP3      H2       HW       0.417000       1.00800           0
     22447 TIP3     3506     TP3      O        OW      -0.834000       16.0000           0
     22448 TIP3     3506     TP3      H1       HW       0.417000       1.00800           0
     22449 TIP3     3506     TP3      H2       HW       0.417000       1.00800           0
     22450 TIP3     3507     TP3      O        OW      -0.834000       16.0000           0
     22451 TIP3     3507     TP3      H1       HW       0.417000       1.00800           0
     22452 TIP3     3507     TP3      H2       HW       0.417000       1.00800           0
     22453 TIP3     3508     TP3      O        OW      -0.834000       16.0000           0
     22454 TIP3     3508     TP3      H1       HW       0.417000       1.00800           0
     22455 TIP3     3508     TP3      H2       HW       0.417000       1.00800           0
     22456 TIP3     3509     TP3      O        OW      -0.834000       16.0000           0
     22457 TIP3     3509     TP3      H1       HW       0.417000       1.00800           0
     22458 TIP3     3509     TP3      H2       HW       0.417000       1.00800           0
     22459 TIP3     3510     TP3      O        OW      -0.834000       16.0000           0
     22460 TIP3     3510     TP3      H1       HW       0.417000       1.00800           0
     22461 TIP3     3510     TP3      H2       HW       0.417000       1.00800           0
     22462 TIP3     3511     TP3      O        OW      -0.834000       16.0000           0
     22463 TIP3     3511     TP3      H1       HW       0.417000       1.00800           0
     22464 TIP3     3511     TP3      H2       HW       0.417000       1.00800           0
     22465 TIP3     3512     TP3      O        OW      -0.834000       16.0000           0
     22466 TIP3     3512     TP3      H1       HW       0.417000       1.00800           0
     22467 TIP3     3512     TP3      H2       HW       0.417000       1.00800           0
     22468 TIP3     3513     TP3      O        OW      -0.834000       16.0000           0
     22469 TIP3     3513     TP3      H1       HW       0.417000       1.00800           0
     22470 TIP3     3513     TP3      H2       HW       0.417000       1.00800           0
     22471 TIP3     3514     TP3      O        OW      -0.834000       16.0000           0
     22472 TIP3     3514     TP3      H1       HW       0.417000       1.00800           0
     22473 TIP3     3514     TP3      H2       HW       0.417000       1.00800           0
     22474 TIP3     3515     TP3      O        OW      -0.834000       16.0000           0
     22475 TIP3     3515     TP3      H1       HW       0.417000       1.00800           0
     22476 TIP3     3515     TP3      H2       HW       0.417000       1.00800           0
     22477 TIP3     3516     TP3      O        OW      -0.834000       16.0000           0
     22478 TIP3     3516     TP3      H1       HW       0.417000       1.00800           0
     22479 TIP3     3516     TP3      H2       HW       0.417000       1.00800           0
     22480 TIP3     3517     TP3      O        OW      -0.834000       16.0000           0
     22481 TIP3     3517     TP3      H1       HW       0.417000       1.00800           0
     22482 TIP3     3517     TP3      H2       HW       0.417000       1.00800           0
     22483 TIP3     3518     TP3      O        OW      -0.834000       16.0000           0
     22484 TIP3     3518     TP3      H1       HW       0.417000       1.00800           0
     22485 TIP3     3518     TP3      H2       HW       0.417000       1.00800           0
     22486 TIP3     3519     TP3      O        OW      -0.834000       16.0000           0
     22487 TIP3     3519     TP3      H1       HW       0.417000       1.00800           0
     22488 TIP3     3519     TP3      H2       HW       0.417000       1.00800           0
     22489 TIP3     3520     TP3      O        OW      -0.834000       16.0000           0
     22490 TIP3     3520     TP3      H1       HW       0.417000       1.00800           0
     22491 TIP3     3520     TP3      H2       HW       0.417000       1.00800           0
     22492 TIP3     3521     TP3      O        OW      -0.834000       16.0000           0
     22493 TIP3     3521     TP3      H1       HW       0.417000       1.00800           0
     22494 TIP3     3521     TP3      H2       HW       0.417000       1.00800           0
     22495 TIP3     3522     TP3      O        OW      -0.834000       16.0000           0
     22496 TIP3     3522     TP3      H1       HW       0.417000       1.00800           0
     22497 TIP3     3522     TP3      H2       HW       0.417000       1.00800           0
     22498 TIP3     3523     TP3      O        OW      -0.834000       16.0000           0
     22499 TIP3     3523     TP3      H1       HW       0.417000       1.00800           0
     22500 TIP3     3523     TP3      H2       HW       0.417000       1.00800           0
     22501 TIP3     3524     TP3      O        OW      -0.834000       16.0000           0
     22502 TIP3     3524     TP3      H1       HW       0.417000       1.00800           0
     22503 TIP3     3524     TP3      H2       HW       0.417000       1.00800           0
     22504 TIP3     3525     TP3      O        OW      -0.834000       16.0000           0
     22505 TIP3     3525     TP3      H1       HW       0.417000       1.00800           0
     22506 TIP3     3525     TP3      H2       HW       0.417000       1.00800           0
     22507 TIP3     3526     TP3      O        OW      -0.834000       16.0000           0
     22508 TIP3     3526     TP3      H1       HW       0.417000       1.00800           0
     22509 TIP3     3526     TP3      H2       HW       0.417000       1.00800           0
     22510 TIP3     3527     TP3      O        OW      -0.834000       16.0000           0
     22511 TIP3     3527     TP3      H1       HW       0.417000       1.00800           0
     22512 TIP3     3527     TP3      H2       HW       0.417000       1.00800           0
     22513 TIP3     3528     TP3      O        OW      -0.834000       16.0000           0
     22514 TIP3     3528     TP3      H1       HW       0.417000       1.00800           0
     22515 TIP3     3528     TP3      H2       HW       0.417000       1.00800           0
     22516 TIP3     3529     TP3      O        OW      -0.834000       16.0000           0
     22517 TIP3     3529     TP3      H1       HW       0.417000       1.00800           0
     22518 TIP3     3529     TP3      H2       HW       0.417000       1.00800           0
     22519 TIP3     3530     TP3      O        OW      -0.834000       16.0000           0
     22520 TIP3     3530     TP3      H1       HW       0.417000       1.00800           0
     22521 TIP3     3530     TP3      H2       HW       0.417000       1.00800           0
     22522 TIP3     3531     TP3      O        OW      -0.834000       16.0000           0
     22523 TIP3     3531     TP3      H1       HW       0.417000       1.00800           0
     22524 TIP3     3531     TP3      H2       HW       0.417000       1.00800           0
     22525 TIP3     3532     TP3      O        OW      -0.834000       16.0000           0
     22526 TIP3     3532     TP3      H1       HW       0.417000       1.00800           0
     22527 TIP3     3532     TP3      H2       HW       0.417000       1.00800           0
     22528 TIP3     3533     TP3      O        OW      -0.834000       16.0000           0
     22529 TIP3     3533     TP3      H1       HW       0.417000       1.00800           0
     22530 TIP3     3533     TP3      H2       HW       0.417000       1.00800           0
     22531 TIP3     3534     TP3      O        OW      -0.834000       16.0000           0
     22532 TIP3     3534     TP3      H1       HW       0.417000       1.00800           0
     22533 TIP3     3534     TP3      H2       HW       0.417000       1.00800           0
     22534 TIP3     3535     TP3      O        OW      -0.834000       16.0000           0
     22535 TIP3     3535     TP3      H1       HW       0.417000       1.00800           0
     22536 TIP3     3535     TP3      H2       HW       0.417000       1.00800           0
     22537 TIP3     3536     TP3      O        OW      -0.834000       16.0000           0
     22538 TIP3     3536     TP3      H1       HW       0.417000       1.00800           0
     22539 TIP3     3536     TP3      H2       HW       0.417000       1.00800           0
     22540 TIP3     3537     TP3      O        OW      -0.834000       16.0000           0
     22541 TIP3     3537     TP3      H1       HW       0.417000       1.00800           0
     22542 TIP3     3537     TP3      H2       HW       0.417000       1.00800           0
     22543 TIP3     3538     TP3      O        OW      -0.834000       16.0000           0
     22544 TIP3     3538     TP3      H1       HW       0.417000       1.00800           0
     22545 TIP3     3538     TP3      H2       HW       0.417000       1.00800           0
     22546 TIP3     3539     TP3      O        OW      -0.834000       16.0000           0
     22547 TIP3     3539     TP3      H1       HW       0.417000       1.00800           0
     22548 TIP3     3539     TP3      H2       HW       0.417000       1.00800           0
     22549 TIP3     3540     TP3      O        OW      -0.834000       16.0000           0
     22550 TIP3     3540     TP3      H1       HW       0.417000       1.00800           0
     22551 TIP3     3540     TP3      H2       HW       0.417000       1.00800           0
     22552 TIP3     3541     TP3      O        OW      -0.834000       16.0000           0
     22553 TIP3     3541     TP3      H1       HW       0.417000       1.00800           0
     22554 TIP3     3541     TP3      H2       HW       0.417000       1.00800           0
     22555 TIP3     3542     TP3      O        OW      -0.834000       16.0000           0
     22556 TIP3     3542     TP3      H1       HW       0.417000       1.00800           0
     22557 TIP3     3542     TP3      H2       HW       0.417000       1.00800           0
     22558 TIP3     3543     TP3      O        OW      -0.834000       16.0000           0
     22559 TIP3     3543     TP3      H1       HW       0.417000       1.00800           0
     22560 TIP3     3543     TP3      H2       HW       0.417000       1.00800           0
     22561 TIP3     3544     TP3      O        OW      -0.834000       16.0000           0
     22562 TIP3     3544     TP3      H1       HW       0.417000       1.00800           0
     22563 TIP3     3544     TP3      H2       HW       0.417000       1.00800           0
     22564 TIP3     3545     TP3      O        OW      -0.834000       16.0000           0
     22565 TIP3     3545     TP3      H1       HW       0.417000       1.00800           0
     22566 TIP3     3545     TP3      H2       HW       0.417000       1.00800           0
     22567 TIP3     3546     TP3      O        OW      -0.834000       16.0000           0
     22568 TIP3     3546     TP3      H1       HW       0.417000       1.00800           0
     22569 TIP3     3546     TP3      H2       HW       0.417000       1.00800           0
     22570 TIP3     3547     TP3      O        OW      -0.834000       16.0000           0
     22571 TIP3     3547     TP3      H1       HW       0.417000       1.00800           0
     22572 TIP3     3547     TP3      H2       HW       0.417000       1.00800           0
     22573 TIP3     3548     TP3      O        OW      -0.834000       16.0000           0
     22574 TIP3     3548     TP3      H1       HW       0.417000       1.00800           0
     22575 TIP3     3548     TP3      H2       HW       0.417000       1.00800           0
     22576 TIP3     3549     TP3      O        OW      -0.834000       16.0000           0
     22577 TIP3     3549     TP3      H1       HW       0.417000       1.00800           0
     22578 TIP3     3549     TP3      H2       HW       0.417000       1.00800           0
     22579 TIP3     3550     TP3      O        OW      -0.834000       16.0000           0
     22580 TIP3     3550     TP3      H1       HW       0.417000       1.00800           0
     22581 TIP3     3550     TP3      H2       HW       0.417000       1.00800           0
     22582 TIP3     3551     TP3      O        OW      -0.834000       16.0000           0
     22583 TIP3     3551     TP3      H1       HW       0.417000       1.00800           0
     22584 TIP3     3551     TP3      H2       HW       0.417000       1.00800           0
     22585 TIP3     3552     TP3      O        OW      -0.834000       16.0000           0
     22586 TIP3     3552     TP3      H1       HW       0.417000       1.00800           0
     22587 TIP3     3552     TP3      H2       HW       0.417000       1.00800           0
     22588 TIP3     3553     TP3      O        OW      -0.834000       16.0000           0
     22589 TIP3     3553     TP3      H1       HW       0.417000       1.00800           0
     22590 TIP3     3553     TP3      H2       HW       0.417000       1.00800           0
     22591 TIP3     3554     TP3      O        OW      -0.834000       16.0000           0
     22592 TIP3     3554     TP3      H1       HW       0.417000       1.00800           0
     22593 TIP3     3554     TP3      H2       HW       0.417000       1.00800           0
     22594 TIP3     3555     TP3      O        OW      -0.834000       16.0000           0
     22595 TIP3     3555     TP3      H1       HW       0.417000       1.00800           0
     22596 TIP3     3555     TP3      H2       HW       0.417000       1.00800           0
     22597 TIP3     3556     TP3      O        OW      -0.834000       16.0000           0
     22598 TIP3     3556     TP3      H1       HW       0.417000       1.00800           0
     22599 TIP3     3556     TP3      H2       HW       0.417000       1.00800           0
     22600 TIP3     3557     TP3      O        OW      -0.834000       16.0000           0
     22601 TIP3     3557     TP3      H1       HW       0.417000       1.00800           0
     22602 TIP3     3557     TP3      H2       HW       0.417000       1.00800           0
     22603 TIP3     3558     TP3      O        OW      -0.834000       16.0000           0
     22604 TIP3     3558     TP3      H1       HW       0.417000       1.00800           0
     22605 TIP3     3558     TP3      H2       HW       0.417000       1.00800           0
     22606 TIP3     3559     TP3      O        OW      -0.834000       16.0000           0
     22607 TIP3     3559     TP3      H1       HW       0.417000       1.00800           0
     22608 TIP3     3559     TP3      H2       HW       0.417000       1.00800           0
     22609 TIP3     3560     TP3      O        OW      -0.834000       16.0000           0
     22610 TIP3     3560     TP3      H1       HW       0.417000       1.00800           0
     22611 TIP3     3560     TP3      H2       HW       0.417000       1.00800           0
     22612 TIP3     3561     TP3      O        OW      -0.834000       16.0000           0
     22613 TIP3     3561     TP3      H1       HW       0.417000       1.00800           0
     22614 TIP3     3561     TP3      H2       HW       0.417000       1.00800           0
     22615 TIP3     3562     TP3      O        OW      -0.834000       16.0000           0
     22616 TIP3     3562     TP3      H1       HW       0.417000       1.00800           0
     22617 TIP3     3562     TP3      H2       HW       0.417000       1.00800           0
     22618 TIP3     3563     TP3      O        OW      -0.834000       16.0000           0
     22619 TIP3     3563     TP3      H1       HW       0.417000       1.00800           0
     22620 TIP3     3563     TP3      H2       HW       0.417000       1.00800           0
     22621 TIP3     3564     TP3      O        OW      -0.834000       16.0000           0
     22622 TIP3     3564     TP3      H1       HW       0.417000       1.00800           0
     22623 TIP3     3564     TP3      H2       HW       0.417000       1.00800           0
     22624 TIP3     3565     TP3      O        OW      -0.834000       16.0000           0
     22625 TIP3     3565     TP3      H1       HW       0.417000       1.00800           0
     22626 TIP3     3565     TP3      H2       HW       0.417000       1.00800           0
     22627 TIP3     3566     TP3      O        OW      -0.834000       16.0000           0
     22628 TIP3     3566     TP3      H1       HW       0.417000       1.00800           0
     22629 TIP3     3566     TP3      H2       HW       0.417000       1.00800           0
     22630 TIP3     3567     TP3      O        OW      -0.834000       16.0000           0
     22631 TIP3     3567     TP3      H1       HW       0.417000       1.00800           0
     22632 TIP3     3567     TP3      H2       HW       0.417000       1.00800           0
     22633 TIP3     3568     TP3      O        OW      -0.834000       16.0000           0
     22634 TIP3     3568     TP3      H1       HW       0.417000       1.00800           0
     22635 TIP3     3568     TP3      H2       HW       0.417000       1.00800           0
     22636 TIP3     3569     TP3      O        OW      -0.834000       16.0000           0
     22637 TIP3     3569     TP3      H1       HW       0.417000       1.00800           0
     22638 TIP3     3569     TP3      H2       HW       0.417000       1.00800           0
     22639 TIP3     3570     TP3      O        OW      -0.834000       16.0000           0
     22640 TIP3     3570     TP3      H1       HW       0.417000       1.00800           0
     22641 TIP3     3570     TP3      H2       HW       0.417000       1.00800           0
     22642 TIP3     3571     TP3      O        OW      -0.834000       16.0000           0
     22643 TIP3     3571     TP3      H1       HW       0.417000       1.00800           0
     22644 TIP3     3571     TP3      H2       HW       0.417000       1.00800           0
     22645 TIP3     3572     TP3      O        OW      -0.834000       16.0000           0
     22646 TIP3     3572     TP3      H1       HW       0.417000       1.00800           0
     22647 TIP3     3572     TP3      H2       HW       0.417000       1.00800           0
     22648 TIP3     3573     TP3      O        OW      -0.834000       16.0000           0
     22649 TIP3     3573     TP3      H1       HW       0.417000       1.00800           0
     22650 TIP3     3573     TP3      H2       HW       0.417000       1.00800           0
     22651 TIP3     3574     TP3      O        OW      -0.834000       16.0000           0
     22652 TIP3     3574     TP3      H1       HW       0.417000       1.00800           0
     22653 TIP3     3574     TP3      H2       HW       0.417000       1.00800           0
     22654 TIP3     3575     TP3      O        OW      -0.834000       16.0000           0
     22655 TIP3     3575     TP3      H1       HW       0.417000       1.00800           0
     22656 TIP3     3575     TP3      H2       HW       0.417000       1.00800           0
     22657 TIP3     3576     TP3      O        OW      -0.834000       16.0000           0
     22658 TIP3     3576     TP3      H1       HW       0.417000       1.00800           0
     22659 TIP3     3576     TP3      H2       HW       0.417000       1.00800           0
     22660 TIP3     3577     TP3      O        OW      -0.834000       16.0000           0
     22661 TIP3     3577     TP3      H1       HW       0.417000       1.00800           0
     22662 TIP3     3577     TP3      H2       HW       0.417000       1.00800           0
     22663 TIP3     3578     TP3      O        OW      -0.834000       16.0000           0
     22664 TIP3     3578     TP3      H1       HW       0.417000       1.00800           0
     22665 TIP3     3578     TP3      H2       HW       0.417000       1.00800           0
     22666 TIP3     3579     TP3      O        OW      -0.834000       16.0000           0
     22667 TIP3     3579     TP3      H1       HW       0.417000       1.00800           0
     22668 TIP3     3579     TP3      H2       HW       0.417000       1.00800           0
     22669 TIP3     3580     TP3      O        OW      -0.834000       16.0000           0
     22670 TIP3     3580     TP3      H1       HW       0.417000       1.00800           0
     22671 TIP3     3580     TP3      H2       HW       0.417000       1.00800           0
     22672 TIP3     3581     TP3      O        OW      -0.834000       16.0000           0
     22673 TIP3     3581     TP3      H1       HW       0.417000       1.00800           0
     22674 TIP3     3581     TP3      H2       HW       0.417000       1.00800           0
     22675 TIP3     3582     TP3      O        OW      -0.834000       16.0000           0
     22676 TIP3     3582     TP3      H1       HW       0.417000       1.00800           0
     22677 TIP3     3582     TP3      H2       HW       0.417000       1.00800           0
     22678 TIP3     3583     TP3      O        OW      -0.834000       16.0000           0
     22679 TIP3     3583     TP3      H1       HW       0.417000       1.00800           0
     22680 TIP3     3583     TP3      H2       HW       0.417000       1.00800           0
     22681 TIP3     3584     TP3      O        OW      -0.834000       16.0000           0
     22682 TIP3     3584     TP3      H1       HW       0.417000       1.00800           0
     22683 TIP3     3584     TP3      H2       HW       0.417000       1.00800           0
     22684 TIP3     3585     TP3      O        OW      -0.834000       16.0000           0
     22685 TIP3     3585     TP3      H1       HW       0.417000       1.00800           0
     22686 TIP3     3585     TP3      H2       HW       0.417000       1.00800           0
     22687 TIP3     3586     TP3      O        OW      -0.834000       16.0000           0
     22688 TIP3     3586     TP3      H1       HW       0.417000       1.00800           0
     22689 TIP3     3586     TP3      H2       HW       0.417000       1.00800           0
     22690 TIP3     3587     TP3      O        OW      -0.834000       16.0000           0
     22691 TIP3     3587     TP3      H1       HW       0.417000       1.00800           0
     22692 TIP3     3587     TP3      H2       HW       0.417000       1.00800           0
     22693 TIP3     3588     TP3      O        OW      -0.834000       16.0000           0
     22694 TIP3     3588     TP3      H1       HW       0.417000       1.00800           0
     22695 TIP3     3588     TP3      H2       HW       0.417000       1.00800           0
     22696 TIP3     3589     TP3      O        OW      -0.834000       16.0000           0
     22697 TIP3     3589     TP3      H1       HW       0.417000       1.00800           0
     22698 TIP3     3589     TP3      H2       HW       0.417000       1.00800           0
     22699 TIP3     3590     TP3      O        OW      -0.834000       16.0000           0
     22700 TIP3     3590     TP3      H1       HW       0.417000       1.00800           0
     22701 TIP3     3590     TP3      H2       HW       0.417000       1.00800           0
     22702 TIP3     3591     TP3      O        OW      -0.834000       16.0000           0
     22703 TIP3     3591     TP3      H1       HW       0.417000       1.00800           0
     22704 TIP3     3591     TP3      H2       HW       0.417000       1.00800           0
     22705 TIP3     3592     TP3      O        OW      -0.834000       16.0000           0
     22706 TIP3     3592     TP3      H1       HW       0.417000       1.00800           0
     22707 TIP3     3592     TP3      H2       HW       0.417000       1.00800           0
     22708 TIP3     3593     TP3      O        OW      -0.834000       16.0000           0
     22709 TIP3     3593     TP3      H1       HW       0.417000       1.00800           0
     22710 TIP3     3593     TP3      H2       HW       0.417000       1.00800           0
     22711 TIP3     3594     TP3      O        OW      -0.834000       16.0000           0
     22712 TIP3     3594     TP3      H1       HW       0.417000       1.00800           0
     22713 TIP3     3594     TP3      H2       HW       0.417000       1.00800           0
     22714 TIP3     3595     TP3      O        OW      -0.834000       16.0000           0
     22715 TIP3     3595     TP3      H1       HW       0.417000       1.00800           0
     22716 TIP3     3595     TP3      H2       HW       0.417000       1.00800           0
     22717 TIP3     3596     TP3      O        OW      -0.834000       16.0000           0
     22718 TIP3     3596     TP3      H1       HW       0.417000       1.00800           0
     22719 TIP3     3596     TP3      H2       HW       0.417000       1.00800           0
     22720 TIP3     3597     TP3      O        OW      -0.834000       16.0000           0
     22721 TIP3     3597     TP3      H1       HW       0.417000       1.00800           0
     22722 TIP3     3597     TP3      H2       HW       0.417000       1.00800           0
     22723 TIP3     3598     TP3      O        OW      -0.834000       16.0000           0
     22724 TIP3     3598     TP3      H1       HW       0.417000       1.00800           0
     22725 TIP3     3598     TP3      H2       HW       0.417000       1.00800           0
     22726 TIP3     3599     TP3      O        OW      -0.834000       16.0000           0
     22727 TIP3     3599     TP3      H1       HW       0.417000       1.00800           0
     22728 TIP3     3599     TP3      H2       HW       0.417000       1.00800           0
     22729 TIP3     3600     TP3      O        OW      -0.834000       16.0000           0
     22730 TIP3     3600     TP3      H1       HW       0.417000       1.00800           0
     22731 TIP3     3600     TP3      H2       HW       0.417000       1.00800           0
     22732 TIP3     3601     TP3      O        OW      -0.834000       16.0000           0
     22733 TIP3     3601     TP3      H1       HW       0.417000       1.00800           0
     22734 TIP3     3601     TP3      H2       HW       0.417000       1.00800           0
     22735 TIP3     3602     TP3      O        OW      -0.834000       16.0000           0
     22736 TIP3     3602     TP3      H1       HW       0.417000       1.00800           0
     22737 TIP3     3602     TP3      H2       HW       0.417000       1.00800           0
     22738 TIP3     3603     TP3      O        OW      -0.834000       16.0000           0
     22739 TIP3     3603     TP3      H1       HW       0.417000       1.00800           0
     22740 TIP3     3603     TP3      H2       HW       0.417000       1.00800           0
     22741 TIP3     3604     TP3      O        OW      -0.834000       16.0000           0
     22742 TIP3     3604     TP3      H1       HW       0.417000       1.00800           0
     22743 TIP3     3604     TP3      H2       HW       0.417000       1.00800           0
     22744 TIP3     3605     TP3      O        OW      -0.834000       16.0000           0
     22745 TIP3     3605     TP3      H1       HW       0.417000       1.00800           0
     22746 TIP3     3605     TP3      H2       HW       0.417000       1.00800           0
     22747 TIP3     3606     TP3      O        OW      -0.834000       16.0000           0
     22748 TIP3     3606     TP3      H1       HW       0.417000       1.00800           0
     22749 TIP3     3606     TP3      H2       HW       0.417000       1.00800           0
     22750 TIP3     3607     TP3      O        OW      -0.834000       16.0000           0
     22751 TIP3     3607     TP3      H1       HW       0.417000       1.00800           0
     22752 TIP3     3607     TP3      H2       HW       0.417000       1.00800           0
     22753 TIP3     3608     TP3      O        OW      -0.834000       16.0000           0
     22754 TIP3     3608     TP3      H1       HW       0.417000       1.00800           0
     22755 TIP3     3608     TP3      H2       HW       0.417000       1.00800           0
     22756 TIP3     3609     TP3      O        OW      -0.834000       16.0000           0
     22757 TIP3     3609     TP3      H1       HW       0.417000       1.00800           0
     22758 TIP3     3609     TP3      H2       HW       0.417000       1.00800           0
     22759 TIP3     3610     TP3      O        OW      -0.834000       16.0000           0
     22760 TIP3     3610     TP3      H1       HW       0.417000       1.00800           0
     22761 TIP3     3610     TP3      H2       HW       0.417000       1.00800           0
     22762 TIP3     3611     TP3      O        OW      -0.834000       16.0000           0
     22763 TIP3     3611     TP3      H1       HW       0.417000       1.00800           0
     22764 TIP3     3611     TP3      H2       HW       0.417000       1.00800           0
     22765 TIP3     3612     TP3      O        OW      -0.834000       16.0000           0
     22766 TIP3     3612     TP3      H1       HW       0.417000       1.00800           0
     22767 TIP3     3612     TP3      H2       HW       0.417000       1.00800           0
     22768 TIP3     3613     TP3      O        OW      -0.834000       16.0000           0
     22769 TIP3     3613     TP3      H1       HW       0.417000       1.00800           0
     22770 TIP3     3613     TP3      H2       HW       0.417000       1.00800           0
     22771 TIP3     3614     TP3      O        OW      -0.834000       16.0000           0
     22772 TIP3     3614     TP3      H1       HW       0.417000       1.00800           0
     22773 TIP3     3614     TP3      H2       HW       0.417000       1.00800           0
     22774 TIP3     3615     TP3      O        OW      -0.834000       16.0000           0
     22775 TIP3     3615     TP3      H1       HW       0.417000       1.00800           0
     22776 TIP3     3615     TP3      H2       HW       0.417000       1.00800           0
     22777 TIP3     3616     TP3      O        OW      -0.834000       16.0000           0
     22778 TIP3     3616     TP3      H1       HW       0.417000       1.00800           0
     22779 TIP3     3616     TP3      H2       HW       0.417000       1.00800           0
     22780 TIP3     3617     TP3      O        OW      -0.834000       16.0000           0
     22781 TIP3     3617     TP3      H1       HW       0.417000       1.00800           0
     22782 TIP3     3617     TP3      H2       HW       0.417000       1.00800           0
     22783 TIP3     3618     TP3      O        OW      -0.834000       16.0000           0
     22784 TIP3     3618     TP3      H1       HW       0.417000       1.00800           0
     22785 TIP3     3618     TP3      H2       HW       0.417000       1.00800           0
     22786 TIP3     3619     TP3      O        OW      -0.834000       16.0000           0
     22787 TIP3     3619     TP3      H1       HW       0.417000       1.00800           0
     22788 TIP3     3619     TP3      H2       HW       0.417000       1.00800           0
     22789 TIP3     3620     TP3      O        OW      -0.834000       16.0000           0
     22790 TIP3     3620     TP3      H1       HW       0.417000       1.00800           0
     22791 TIP3     3620     TP3      H2       HW       0.417000       1.00800           0
     22792 TIP3     3621     TP3      O        OW      -0.834000       16.0000           0
     22793 TIP3     3621     TP3      H1       HW       0.417000       1.00800           0
     22794 TIP3     3621     TP3      H2       HW       0.417000       1.00800           0
     22795 TIP3     3622     TP3      O        OW      -0.834000       16.0000           0
     22796 TIP3     3622     TP3      H1       HW       0.417000       1.00800           0
     22797 TIP3     3622     TP3      H2       HW       0.417000       1.00800           0
     22798 TIP3     3623     TP3      O        OW      -0.834000       16.0000           0
     22799 TIP3     3623     TP3      H1       HW       0.417000       1.00800           0
     22800 TIP3     3623     TP3      H2       HW       0.417000       1.00800           0
     22801 TIP3     3624     TP3      O        OW      -0.834000       16.0000           0
     22802 TIP3     3624     TP3      H1       HW       0.417000       1.00800           0
     22803 TIP3     3624     TP3      H2       HW       0.417000       1.00800           0
     22804 TIP3     3625     TP3      O        OW      -0.834000       16.0000           0
     22805 TIP3     3625     TP3      H1       HW       0.417000       1.00800           0
     22806 TIP3     3625     TP3      H2       HW       0.417000       1.00800           0
     22807 TIP3     3626     TP3      O        OW      -0.834000       16.0000           0
     22808 TIP3     3626     TP3      H1       HW       0.417000       1.00800           0
     22809 TIP3     3626     TP3      H2       HW       0.417000       1.00800           0
     22810 TIP3     3627     TP3      O        OW      -0.834000       16.0000           0
     22811 TIP3     3627     TP3      H1       HW       0.417000       1.00800           0
     22812 TIP3     3627     TP3      H2       HW       0.417000       1.00800           0
     22813 TIP3     3628     TP3      O        OW      -0.834000       16.0000           0
     22814 TIP3     3628     TP3      H1       HW       0.417000       1.00800           0
     22815 TIP3     3628     TP3      H2       HW       0.417000       1.00800           0
     22816 TIP3     3629     TP3      O        OW      -0.834000       16.0000           0
     22817 TIP3     3629     TP3      H1       HW       0.417000       1.00800           0
     22818 TIP3     3629     TP3      H2       HW       0.417000       1.00800           0
     22819 TIP3     3630     TP3      O        OW      -0.834000       16.0000           0
     22820 TIP3     3630     TP3      H1       HW       0.417000       1.00800           0
     22821 TIP3     3630     TP3      H2       HW       0.417000       1.00800           0
     22822 TIP3     3631     TP3      O        OW      -0.834000       16.0000           0
     22823 TIP3     3631     TP3      H1       HW       0.417000       1.00800           0
     22824 TIP3     3631     TP3      H2       HW       0.417000       1.00800           0
     22825 TIP3     3632     TP3      O        OW      -0.834000       16.0000           0
     22826 TIP3     3632     TP3      H1       HW       0.417000       1.00800           0
     22827 TIP3     3632     TP3      H2       HW       0.417000       1.00800           0
     22828 TIP3     3633     TP3      O        OW      -0.834000       16.0000           0
     22829 TIP3     3633     TP3      H1       HW       0.417000       1.00800           0
     22830 TIP3     3633     TP3      H2       HW       0.417000       1.00800           0
     22831 TIP3     3634     TP3      O        OW      -0.834000       16.0000           0
     22832 TIP3     3634     TP3      H1       HW       0.417000       1.00800           0
     22833 TIP3     3634     TP3      H2       HW       0.417000       1.00800           0
     22834 TIP3     3635     TP3      O        OW      -0.834000       16.0000           0
     22835 TIP3     3635     TP3      H1       HW       0.417000       1.00800           0
     22836 TIP3     3635     TP3      H2       HW       0.417000       1.00800           0
     22837 TIP3     3636     TP3      O        OW      -0.834000       16.0000           0
     22838 TIP3     3636     TP3      H1       HW       0.417000       1.00800           0
     22839 TIP3     3636     TP3      H2       HW       0.417000       1.00800           0
     22840 TIP3     3637     TP3      O        OW      -0.834000       16.0000           0
     22841 TIP3     3637     TP3      H1       HW       0.417000       1.00800           0
     22842 TIP3     3637     TP3      H2       HW       0.417000       1.00800           0
     22843 TIP3     3638     TP3      O        OW      -0.834000       16.0000           0
     22844 TIP3     3638     TP3      H1       HW       0.417000       1.00800           0
     22845 TIP3     3638     TP3      H2       HW       0.417000       1.00800           0
     22846 TIP3     3639     TP3      O        OW      -0.834000       16.0000           0
     22847 TIP3     3639     TP3      H1       HW       0.417000       1.00800           0
     22848 TIP3     3639     TP3      H2       HW       0.417000       1.00800           0
     22849 TIP3     3640     TP3      O        OW      -0.834000       16.0000           0
     22850 TIP3     3640     TP3      H1       HW       0.417000       1.00800           0
     22851 TIP3     3640     TP3      H2       HW       0.417000       1.00800           0
     22852 TIP3     3641     TP3      O        OW      -0.834000       16.0000           0
     22853 TIP3     3641     TP3      H1       HW       0.417000       1.00800           0
     22854 TIP3     3641     TP3      H2       HW       0.417000       1.00800           0
     22855 TIP3     3642     TP3      O        OW      -0.834000       16.0000           0
     22856 TIP3     3642     TP3      H1       HW       0.417000       1.00800           0
     22857 TIP3     3642     TP3      H2       HW       0.417000       1.00800           0
     22858 TIP3     3643     TP3      O        OW      -0.834000       16.0000           0
     22859 TIP3     3643     TP3      H1       HW       0.417000       1.00800           0
     22860 TIP3     3643     TP3      H2       HW       0.417000       1.00800           0
     22861 TIP3     3644     TP3      O        OW      -0.834000       16.0000           0
     22862 TIP3     3644     TP3      H1       HW       0.417000       1.00800           0
     22863 TIP3     3644     TP3      H2       HW       0.417000       1.00800           0
     22864 TIP3     3645     TP3      O        OW      -0.834000       16.0000           0
     22865 TIP3     3645     TP3      H1       HW       0.417000       1.00800           0
     22866 TIP3     3645     TP3      H2       HW       0.417000       1.00800           0
     22867 TIP3     3646     TP3      O        OW      -0.834000       16.0000           0
     22868 TIP3     3646     TP3      H1       HW       0.417000       1.00800           0
     22869 TIP3     3646     TP3      H2       HW       0.417000       1.00800           0
     22870 TIP3     3647     TP3      O        OW      -0.834000       16.0000           0
     22871 TIP3     3647     TP3      H1       HW       0.417000       1.00800           0
     22872 TIP3     3647     TP3      H2       HW       0.417000       1.00800           0
     22873 TIP3     3648     TP3      O        OW      -0.834000       16.0000           0
     22874 TIP3     3648     TP3      H1       HW       0.417000       1.00800           0
     22875 TIP3     3648     TP3      H2       HW       0.417000       1.00800           0
     22876 TIP3     3649     TP3      O        OW      -0.834000       16.0000           0
     22877 TIP3     3649     TP3      H1       HW       0.417000       1.00800           0
     22878 TIP3     3649     TP3      H2       HW       0.417000       1.00800           0
     22879 TIP3     3650     TP3      O        OW      -0.834000       16.0000           0
     22880 TIP3     3650     TP3      H1       HW       0.417000       1.00800           0
     22881 TIP3     3650     TP3      H2       HW       0.417000       1.00800           0
     22882 TIP3     3651     TP3      O        OW      -0.834000       16.0000           0
     22883 TIP3     3651     TP3      H1       HW       0.417000       1.00800           0
     22884 TIP3     3651     TP3      H2       HW       0.417000       1.00800           0
     22885 TIP3     3652     TP3      O        OW      -0.834000       16.0000           0
     22886 TIP3     3652     TP3      H1       HW       0.417000       1.00800           0
     22887 TIP3     3652     TP3      H2       HW       0.417000       1.00800           0
     22888 TIP3     3653     TP3      O        OW      -0.834000       16.0000           0
     22889 TIP3     3653     TP3      H1       HW       0.417000       1.00800           0
     22890 TIP3     3653     TP3      H2       HW       0.417000       1.00800           0
     22891 TIP3     3654     TP3      O        OW      -0.834000       16.0000           0
     22892 TIP3     3654     TP3      H1       HW       0.417000       1.00800           0
     22893 TIP3     3654     TP3      H2       HW       0.417000       1.00800           0
     22894 TIP3     3655     TP3      O        OW      -0.834000       16.0000           0
     22895 TIP3     3655     TP3      H1       HW       0.417000       1.00800           0
     22896 TIP3     3655     TP3      H2       HW       0.417000       1.00800           0
     22897 TIP3     3656     TP3      O        OW      -0.834000       16.0000           0
     22898 TIP3     3656     TP3      H1       HW       0.417000       1.00800           0
     22899 TIP3     3656     TP3      H2       HW       0.417000       1.00800           0
     22900 TIP3     3657     TP3      O        OW      -0.834000       16.0000           0
     22901 TIP3     3657     TP3      H1       HW       0.417000       1.00800           0
     22902 TIP3     3657     TP3      H2       HW       0.417000       1.00800           0
     22903 TIP3     3658     TP3      O        OW      -0.834000       16.0000           0
     22904 TIP3     3658     TP3      H1       HW       0.417000       1.00800           0
     22905 TIP3     3658     TP3      H2       HW       0.417000       1.00800           0
     22906 TIP3     3659     TP3      O        OW      -0.834000       16.0000           0
     22907 TIP3     3659     TP3      H1       HW       0.417000       1.00800           0
     22908 TIP3     3659     TP3      H2       HW       0.417000       1.00800           0
     22909 TIP3     3660     TP3      O        OW      -0.834000       16.0000           0
     22910 TIP3     3660     TP3      H1       HW       0.417000       1.00800           0
     22911 TIP3     3660     TP3      H2       HW       0.417000       1.00800           0
     22912 TIP3     3661     TP3      O        OW      -0.834000       16.0000           0
     22913 TIP3     3661     TP3      H1       HW       0.417000       1.00800           0
     22914 TIP3     3661     TP3      H2       HW       0.417000       1.00800           0
     22915 TIP3     3662     TP3      O        OW      -0.834000       16.0000           0
     22916 TIP3     3662     TP3      H1       HW       0.417000       1.00800           0
     22917 TIP3     3662     TP3      H2       HW       0.417000       1.00800           0
     22918 TIP3     3663     TP3      O        OW      -0.834000       16.0000           0
     22919 TIP3     3663     TP3      H1       HW       0.417000       1.00800           0
     22920 TIP3     3663     TP3      H2       HW       0.417000       1.00800           0
     22921 TIP3     3664     TP3      O        OW      -0.834000       16.0000           0
     22922 TIP3     3664     TP3      H1       HW       0.417000       1.00800           0
     22923 TIP3     3664     TP3      H2       HW       0.417000       1.00800           0
     22924 TIP3     3665     TP3      O        OW      -0.834000       16.0000           0
     22925 TIP3     3665     TP3      H1       HW       0.417000       1.00800           0
     22926 TIP3     3665     TP3      H2       HW       0.417000       1.00800           0
     22927 TIP3     3666     TP3      O        OW      -0.834000       16.0000           0
     22928 TIP3     3666     TP3      H1       HW       0.417000       1.00800           0
     22929 TIP3     3666     TP3      H2       HW       0.417000       1.00800           0
     22930 TIP3     3667     TP3      O        OW      -0.834000       16.0000           0
     22931 TIP3     3667     TP3      H1       HW       0.417000       1.00800           0
     22932 TIP3     3667     TP3      H2       HW       0.417000       1.00800           0
     22933 TIP3     3668     TP3      O        OW      -0.834000       16.0000           0
     22934 TIP3     3668     TP3      H1       HW       0.417000       1.00800           0
     22935 TIP3     3668     TP3      H2       HW       0.417000       1.00800           0
     22936 TIP3     3669     TP3      O        OW      -0.834000       16.0000           0
     22937 TIP3     3669     TP3      H1       HW       0.417000       1.00800           0
     22938 TIP3     3669     TP3      H2       HW       0.417000       1.00800           0
     22939 TIP3     3670     TP3      O        OW      -0.834000       16.0000           0
     22940 TIP3     3670     TP3      H1       HW       0.417000       1.00800           0
     22941 TIP3     3670     TP3      H2       HW       0.417000       1.00800           0
     22942 TIP3     3671     TP3      O        OW      -0.834000       16.0000           0
     22943 TIP3     3671     TP3      H1       HW       0.417000       1.00800           0
     22944 TIP3     3671     TP3      H2       HW       0.417000       1.00800           0
     22945 TIP3     3672     TP3      O        OW      -0.834000       16.0000           0
     22946 TIP3     3672     TP3      H1       HW       0.417000       1.00800           0
     22947 TIP3     3672     TP3      H2       HW       0.417000       1.00800           0
     22948 TIP3     3673     TP3      O        OW      -0.834000       16.0000           0
     22949 TIP3     3673     TP3      H1       HW       0.417000       1.00800           0
     22950 TIP3     3673     TP3      H2       HW       0.417000       1.00800           0
     22951 TIP3     3674     TP3      O        OW      -0.834000       16.0000           0
     22952 TIP3     3674     TP3      H1       HW       0.417000       1.00800           0
     22953 TIP3     3674     TP3      H2       HW       0.417000       1.00800           0
     22954 TIP3     3675     TP3      O        OW      -0.834000       16.0000           0
     22955 TIP3     3675     TP3      H1       HW       0.417000       1.00800           0
     22956 TIP3     3675     TP3      H2       HW       0.417000       1.00800           0
     22957 TIP3     3676     TP3      O        OW      -0.834000       16.0000           0
     22958 TIP3     3676     TP3      H1       HW       0.417000       1.00800           0
     22959 TIP3     3676     TP3      H2       HW       0.417000       1.00800           0
     22960 TIP3     3677     TP3      O        OW      -0.834000       16.0000           0
     22961 TIP3     3677     TP3      H1       HW       0.417000       1.00800           0
     22962 TIP3     3677     TP3      H2       HW       0.417000       1.00800           0
     22963 TIP3     3678     TP3      O        OW      -0.834000       16.0000           0
     22964 TIP3     3678     TP3      H1       HW       0.417000       1.00800           0
     22965 TIP3     3678     TP3      H2       HW       0.417000       1.00800           0
     22966 TIP3     3679     TP3      O        OW      -0.834000       16.0000           0
     22967 TIP3     3679     TP3      H1       HW       0.417000       1.00800           0
     22968 TIP3     3679     TP3      H2       HW       0.417000       1.00800           0
     22969 TIP3     3680     TP3      O        OW      -0.834000       16.0000           0
     22970 TIP3     3680     TP3      H1       HW       0.417000       1.00800           0
     22971 TIP3     3680     TP3      H2       HW       0.417000       1.00800           0
     22972 TIP3     3681     TP3      O        OW      -0.834000       16.0000           0
     22973 TIP3     3681     TP3      H1       HW       0.417000       1.00800           0
     22974 TIP3     3681     TP3      H2       HW       0.417000       1.00800           0
     22975 TIP3     3682     TP3      O        OW      -0.834000       16.0000           0
     22976 TIP3     3682     TP3      H1       HW       0.417000       1.00800           0
     22977 TIP3     3682     TP3      H2       HW       0.417000       1.00800           0
     22978 TIP3     3683     TP3      O        OW      -0.834000       16.0000           0
     22979 TIP3     3683     TP3      H1       HW       0.417000       1.00800           0
     22980 TIP3     3683     TP3      H2       HW       0.417000       1.00800           0
     22981 TIP3     3684     TP3      O        OW      -0.834000       16.0000           0
     22982 TIP3     3684     TP3      H1       HW       0.417000       1.00800           0
     22983 TIP3     3684     TP3      H2       HW       0.417000       1.00800           0
     22984 TIP3     3685     TP3      O        OW      -0.834000       16.0000           0
     22985 TIP3     3685     TP3      H1       HW       0.417000       1.00800           0
     22986 TIP3     3685     TP3      H2       HW       0.417000       1.00800           0
     22987 TIP3     3686     TP3      O        OW      -0.834000       16.0000           0
     22988 TIP3     3686     TP3      H1       HW       0.417000       1.00800           0
     22989 TIP3     3686     TP3      H2       HW       0.417000       1.00800           0
     22990 TIP3     3687     TP3      O        OW      -0.834000       16.0000           0
     22991 TIP3     3687     TP3      H1       HW       0.417000       1.00800           0
     22992 TIP3     3687     TP3      H2       HW       0.417000       1.00800           0
     22993 TIP3     3688     TP3      O        OW      -0.834000       16.0000           0
     22994 TIP3     3688     TP3      H1       HW       0.417000       1.00800           0
     22995 TIP3     3688     TP3      H2       HW       0.417000       1.00800           0
     22996 TIP3     3689     TP3      O        OW      -0.834000       16.0000           0
     22997 TIP3     3689     TP3      H1       HW       0.417000       1.00800           0
     22998 TIP3     3689     TP3      H2       HW       0.417000       1.00800           0
     22999 TIP3     3690     TP3      O        OW      -0.834000       16.0000           0
     23000 TIP3     3690     TP3      H1       HW       0.417000       1.00800           0
     23001 TIP3     3690     TP3      H2       HW       0.417000       1.00800           0
     23002 TIP3     3691     TP3      O        OW      -0.834000       16.0000           0
     23003 TIP3     3691     TP3      H1       HW       0.417000       1.00800           0
     23004 TIP3     3691     TP3      H2       HW       0.417000       1.00800           0
     23005 TIP3     3692     TP3      O        OW      -0.834000       16.0000           0
     23006 TIP3     3692     TP3      H1       HW       0.417000       1.00800           0
     23007 TIP3     3692     TP3      H2       HW       0.417000       1.00800           0
     23008 TIP3     3693     TP3      O        OW      -0.834000       16.0000           0
     23009 TIP3     3693     TP3      H1       HW       0.417000       1.00800           0
     23010 TIP3     3693     TP3      H2       HW       0.417000       1.00800           0
     23011 TIP3     3694     TP3      O        OW      -0.834000       16.0000           0
     23012 TIP3     3694     TP3      H1       HW       0.417000       1.00800           0
     23013 TIP3     3694     TP3      H2       HW       0.417000       1.00800           0
     23014 TIP3     3695     TP3      O        OW      -0.834000       16.0000           0
     23015 TIP3     3695     TP3      H1       HW       0.417000       1.00800           0
     23016 TIP3     3695     TP3      H2       HW       0.417000       1.00800           0
     23017 TIP3     3696     TP3      O        OW      -0.834000       16.0000           0
     23018 TIP3     3696     TP3      H1       HW       0.417000       1.00800           0
     23019 TIP3     3696     TP3      H2       HW       0.417000       1.00800           0
     23020 TIP3     3697     TP3      O        OW      -0.834000       16.0000           0
     23021 TIP3     3697     TP3      H1       HW       0.417000       1.00800           0
     23022 TIP3     3697     TP3      H2       HW       0.417000       1.00800           0
     23023 TIP3     3698     TP3      O        OW      -0.834000       16.0000           0
     23024 TIP3     3698     TP3      H1       HW       0.417000       1.00800           0
     23025 TIP3     3698     TP3      H2       HW       0.417000       1.00800           0
     23026 TIP3     3699     TP3      O        OW      -0.834000       16.0000           0
     23027 TIP3     3699     TP3      H1       HW       0.417000       1.00800           0
     23028 TIP3     3699     TP3      H2       HW       0.417000       1.00800           0
     23029 TIP3     3700     TP3      O        OW      -0.834000       16.0000           0
     23030 TIP3     3700     TP3      H1       HW       0.417000       1.00800           0
     23031 TIP3     3700     TP3      H2       HW       0.417000       1.00800           0
     23032 TIP3     3701     TP3      O        OW      -0.834000       16.0000           0
     23033 TIP3     3701     TP3      H1       HW       0.417000       1.00800           0
     23034 TIP3     3701     TP3      H2       HW       0.417000       1.00800           0
     23035 TIP3     3702     TP3      O        OW      -0.834000       16.0000           0
     23036 TIP3     3702     TP3      H1       HW       0.417000       1.00800           0
     23037 TIP3     3702     TP3      H2       HW       0.417000       1.00800           0
     23038 TIP3     3703     TP3      O        OW      -0.834000       16.0000           0
     23039 TIP3     3703     TP3      H1       HW       0.417000       1.00800           0
     23040 TIP3     3703     TP3      H2       HW       0.417000       1.00800           0
     23041 TIP3     3704     TP3      O        OW      -0.834000       16.0000           0
     23042 TIP3     3704     TP3      H1       HW       0.417000       1.00800           0
     23043 TIP3     3704     TP3      H2       HW       0.417000       1.00800           0
     23044 TIP3     3705     TP3      O        OW      -0.834000       16.0000           0
     23045 TIP3     3705     TP3      H1       HW       0.417000       1.00800           0
     23046 TIP3     3705     TP3      H2       HW       0.417000       1.00800           0
     23047 TIP3     3706     TP3      O        OW      -0.834000       16.0000           0
     23048 TIP3     3706     TP3      H1       HW       0.417000       1.00800           0
     23049 TIP3     3706     TP3      H2       HW       0.417000       1.00800           0
     23050 TIP3     3707     TP3      O        OW      -0.834000       16.0000           0
     23051 TIP3     3707     TP3      H1       HW       0.417000       1.00800           0
     23052 TIP3     3707     TP3      H2       HW       0.417000       1.00800           0
     23053 TIP3     3708     TP3      O        OW      -0.834000       16.0000           0
     23054 TIP3     3708     TP3      H1       HW       0.417000       1.00800           0
     23055 TIP3     3708     TP3      H2       HW       0.417000       1.00800           0
     23056 TIP3     3709     TP3      O        OW      -0.834000       16.0000           0
     23057 TIP3     3709     TP3      H1       HW       0.417000       1.00800           0
     23058 TIP3     3709     TP3      H2       HW       0.417000       1.00800           0
     23059 TIP3     3710     TP3      O        OW      -0.834000       16.0000           0
     23060 TIP3     3710     TP3      H1       HW       0.417000       1.00800           0
     23061 TIP3     3710     TP3      H2       HW       0.417000       1.00800           0
     23062 TIP3     3711     TP3      O        OW      -0.834000       16.0000           0
     23063 TIP3     3711     TP3      H1       HW       0.417000       1.00800           0
     23064 TIP3     3711     TP3      H2       HW       0.417000       1.00800           0
     23065 TIP3     3712     TP3      O        OW      -0.834000       16.0000           0
     23066 TIP3     3712     TP3      H1       HW       0.417000       1.00800           0
     23067 TIP3     3712     TP3      H2       HW       0.417000       1.00800           0
     23068 TIP3     3713     TP3      O        OW      -0.834000       16.0000           0
     23069 TIP3     3713     TP3      H1       HW       0.417000       1.00800           0
     23070 TIP3     3713     TP3      H2       HW       0.417000       1.00800           0
     23071 TIP3     3714     TP3      O        OW      -0.834000       16.0000           0
     23072 TIP3     3714     TP3      H1       HW       0.417000       1.00800           0
     23073 TIP3     3714     TP3      H2       HW       0.417000       1.00800           0
     23074 TIP3     3715     TP3      O        OW      -0.834000       16.0000           0
     23075 TIP3     3715     TP3      H1       HW       0.417000       1.00800           0
     23076 TIP3     3715     TP3      H2       HW       0.417000       1.00800           0
     23077 TIP3     3716     TP3      O        OW      -0.834000       16.0000           0
     23078 TIP3     3716     TP3      H1       HW       0.417000       1.00800           0
     23079 TIP3     3716     TP3      H2       HW       0.417000       1.00800           0
     23080 TIP3     3717     TP3      O        OW      -0.834000       16.0000           0
     23081 TIP3     3717     TP3      H1       HW       0.417000       1.00800           0
     23082 TIP3     3717     TP3      H2       HW       0.417000       1.00800           0
     23083 TIP3     3718     TP3      O        OW      -0.834000       16.0000           0
     23084 TIP3     3718     TP3      H1       HW       0.417000       1.00800           0
     23085 TIP3     3718     TP3      H2       HW       0.417000       1.00800           0
     23086 TIP3     3719     TP3      O        OW      -0.834000       16.0000           0
     23087 TIP3     3719     TP3      H1       HW       0.417000       1.00800           0
     23088 TIP3     3719     TP3      H2       HW       0.417000       1.00800           0
     23089 TIP3     3720     TP3      O        OW      -0.834000       16.0000           0
     23090 TIP3     3720     TP3      H1       HW       0.417000       1.00800           0
     23091 TIP3     3720     TP3      H2       HW       0.417000       1.00800           0
     23092 TIP3     3721     TP3      O        OW      -0.834000       16.0000           0
     23093 TIP3     3721     TP3      H1       HW       0.417000       1.00800           0
     23094 TIP3     3721     TP3      H2       HW       0.417000       1.00800           0
     23095 TIP3     3722     TP3      O        OW      -0.834000       16.0000           0
     23096 TIP3     3722     TP3      H1       HW       0.417000       1.00800           0
     23097 TIP3     3722     TP3      H2       HW       0.417000       1.00800           0
     23098 TIP3     3723     TP3      O        OW      -0.834000       16.0000           0
     23099 TIP3     3723     TP3      H1       HW       0.417000       1.00800           0
     23100 TIP3     3723     TP3      H2       HW       0.417000       1.00800           0
     23101 TIP3     3724     TP3      O        OW      -0.834000       16.0000           0
     23102 TIP3     3724     TP3      H1       HW       0.417000       1.00800           0
     23103 TIP3     3724     TP3      H2       HW       0.417000       1.00800           0
     23104 TIP3     3725     TP3      O        OW      -0.834000       16.0000           0
     23105 TIP3     3725     TP3      H1       HW       0.417000       1.00800           0
     23106 TIP3     3725     TP3      H2       HW       0.417000       1.00800           0
     23107 TIP3     3726     TP3      O        OW      -0.834000       16.0000           0
     23108 TIP3     3726     TP3      H1       HW       0.417000       1.00800           0
     23109 TIP3     3726     TP3      H2       HW       0.417000       1.00800           0
     23110 TIP3     3727     TP3      O        OW      -0.834000       16.0000           0
     23111 TIP3     3727     TP3      H1       HW       0.417000       1.00800           0
     23112 TIP3     3727     TP3      H2       HW       0.417000       1.00800           0
     23113 TIP3     3728     TP3      O        OW      -0.834000       16.0000           0
     23114 TIP3     3728     TP3      H1       HW       0.417000       1.00800           0
     23115 TIP3     3728     TP3      H2       HW       0.417000       1.00800           0
     23116 TIP3     3729     TP3      O        OW      -0.834000       16.0000           0
     23117 TIP3     3729     TP3      H1       HW       0.417000       1.00800           0
     23118 TIP3     3729     TP3      H2       HW       0.417000       1.00800           0
     23119 TIP3     3730     TP3      O        OW      -0.834000       16.0000           0
     23120 TIP3     3730     TP3      H1       HW       0.417000       1.00800           0
     23121 TIP3     3730     TP3      H2       HW       0.417000       1.00800           0
     23122 TIP3     3731     TP3      O        OW      -0.834000       16.0000           0
     23123 TIP3     3731     TP3      H1       HW       0.417000       1.00800           0
     23124 TIP3     3731     TP3      H2       HW       0.417000       1.00800           0
     23125 TIP3     3732     TP3      O        OW      -0.834000       16.0000           0
     23126 TIP3     3732     TP3      H1       HW       0.417000       1.00800           0
     23127 TIP3     3732     TP3      H2       HW       0.417000       1.00800           0
     23128 TIP3     3733     TP3      O        OW      -0.834000       16.0000           0
     23129 TIP3     3733     TP3      H1       HW       0.417000       1.00800           0
     23130 TIP3     3733     TP3      H2       HW       0.417000       1.00800           0
     23131 TIP3     3734     TP3      O        OW      -0.834000       16.0000           0
     23132 TIP3     3734     TP3      H1       HW       0.417000       1.00800           0
     23133 TIP3     3734     TP3      H2       HW       0.417000       1.00800           0
     23134 TIP3     3735     TP3      O        OW      -0.834000       16.0000           0
     23135 TIP3     3735     TP3      H1       HW       0.417000       1.00800           0
     23136 TIP3     3735     TP3      H2       HW       0.417000       1.00800           0
     23137 TIP3     3736     TP3      O        OW      -0.834000       16.0000           0
     23138 TIP3     3736     TP3      H1       HW       0.417000       1.00800           0
     23139 TIP3     3736     TP3      H2       HW       0.417000       1.00800           0
     23140 TIP3     3737     TP3      O        OW      -0.834000       16.0000           0
     23141 TIP3     3737     TP3      H1       HW       0.417000       1.00800           0
     23142 TIP3     3737     TP3      H2       HW       0.417000       1.00800           0
     23143 TIP3     3738     TP3      O        OW      -0.834000       16.0000           0
     23144 TIP3     3738     TP3      H1       HW       0.417000       1.00800           0
     23145 TIP3     3738     TP3      H2       HW       0.417000       1.00800           0
     23146 TIP3     3739     TP3      O        OW      -0.834000       16.0000           0
     23147 TIP3     3739     TP3      H1       HW       0.417000       1.00800           0
     23148 TIP3     3739     TP3      H2       HW       0.417000       1.00800           0
     23149 TIP3     3740     TP3      O        OW      -0.834000       16.0000           0
     23150 TIP3     3740     TP3      H1       HW       0.417000       1.00800           0
     23151 TIP3     3740     TP3      H2       HW       0.417000       1.00800           0
     23152 TIP3     3741     TP3      O        OW      -0.834000       16.0000           0
     23153 TIP3     3741     TP3      H1       HW       0.417000       1.00800           0
     23154 TIP3     3741     TP3      H2       HW       0.417000       1.00800           0
     23155 TIP3     3742     TP3      O        OW      -0.834000       16.0000           0
     23156 TIP3     3742     TP3      H1       HW       0.417000       1.00800           0
     23157 TIP3     3742     TP3      H2       HW       0.417000       1.00800           0
     23158 TIP3     3743     TP3      O        OW      -0.834000       16.0000           0
     23159 TIP3     3743     TP3      H1       HW       0.417000       1.00800           0
     23160 TIP3     3743     TP3      H2       HW       0.417000       1.00800           0
     23161 TIP3     3744     TP3      O        OW      -0.834000       16.0000           0
     23162 TIP3     3744     TP3      H1       HW       0.417000       1.00800           0
     23163 TIP3     3744     TP3      H2       HW       0.417000       1.00800           0
     23164 TIP3     3745     TP3      O        OW      -0.834000       16.0000           0
     23165 TIP3     3745     TP3      H1       HW       0.417000       1.00800           0
     23166 TIP3     3745     TP3      H2       HW       0.417000       1.00800           0
     23167 TIP3     3746     TP3      O        OW      -0.834000       16.0000           0
     23168 TIP3     3746     TP3      H1       HW       0.417000       1.00800           0
     23169 TIP3     3746     TP3      H2       HW       0.417000       1.00800           0
     23170 TIP3     3747     TP3      O        OW      -0.834000       16.0000           0
     23171 TIP3     3747     TP3      H1       HW       0.417000       1.00800           0
     23172 TIP3     3747     TP3      H2       HW       0.417000       1.00800           0
     23173 TIP3     3748     TP3      O        OW      -0.834000       16.0000           0
     23174 TIP3     3748     TP3      H1       HW       0.417000       1.00800           0
     23175 TIP3     3748     TP3      H2       HW       0.417000       1.00800           0
     23176 TIP3     3749     TP3      O        OW      -0.834000       16.0000           0
     23177 TIP3     3749     TP3      H1       HW       0.417000       1.00800           0
     23178 TIP3     3749     TP3      H2       HW       0.417000       1.00800           0
     23179 TIP3     3750     TP3      O        OW      -0.834000       16.0000           0
     23180 TIP3     3750     TP3      H1       HW       0.417000       1.00800           0
     23181 TIP3     3750     TP3      H2       HW       0.417000       1.00800           0
     23182 TIP3     3751     TP3      O        OW      -0.834000       16.0000           0
     23183 TIP3     3751     TP3      H1       HW       0.417000       1.00800           0
     23184 TIP3     3751     TP3      H2       HW       0.417000       1.00800           0
     23185 TIP3     3752     TP3      O        OW      -0.834000       16.0000           0
     23186 TIP3     3752     TP3      H1       HW       0.417000       1.00800           0
     23187 TIP3     3752     TP3      H2       HW       0.417000       1.00800           0
     23188 TIP3     3753     TP3      O        OW      -0.834000       16.0000           0
     23189 TIP3     3753     TP3      H1       HW       0.417000       1.00800           0
     23190 TIP3     3753     TP3      H2       HW       0.417000       1.00800           0
     23191 TIP3     3754     TP3      O        OW      -0.834000       16.0000           0
     23192 TIP3     3754     TP3      H1       HW       0.417000       1.00800           0
     23193 TIP3     3754     TP3      H2       HW       0.417000       1.00800           0
     23194 TIP3     3755     TP3      O        OW      -0.834000       16.0000           0
     23195 TIP3     3755     TP3      H1       HW       0.417000       1.00800           0
     23196 TIP3     3755     TP3      H2       HW       0.417000       1.00800           0
     23197 TIP3     3756     TP3      O        OW      -0.834000       16.0000           0
     23198 TIP3     3756     TP3      H1       HW       0.417000       1.00800           0
     23199 TIP3     3756     TP3      H2       HW       0.417000       1.00800           0
     23200 TIP3     3757     TP3      O        OW      -0.834000       16.0000           0
     23201 TIP3     3757     TP3      H1       HW       0.417000       1.00800           0
     23202 TIP3     3757     TP3      H2       HW       0.417000       1.00800           0
     23203 TIP3     3758     TP3      O        OW      -0.834000       16.0000           0
     23204 TIP3     3758     TP3      H1       HW       0.417000       1.00800           0
     23205 TIP3     3758     TP3      H2       HW       0.417000       1.00800           0
     23206 TIP3     3759     TP3      O        OW      -0.834000       16.0000           0
     23207 TIP3     3759     TP3      H1       HW       0.417000       1.00800           0
     23208 TIP3     3759     TP3      H2       HW       0.417000       1.00800           0
     23209 TIP3     3760     TP3      O        OW      -0.834000       16.0000           0
     23210 TIP3     3760     TP3      H1       HW       0.417000       1.00800           0
     23211 TIP3     3760     TP3      H2       HW       0.417000       1.00800           0
     23212 TIP3     3761     TP3      O        OW      -0.834000       16.0000           0
     23213 TIP3     3761     TP3      H1       HW       0.417000       1.00800           0
     23214 TIP3     3761     TP3      H2       HW       0.417000       1.00800           0
     23215 TIP3     3762     TP3      O        OW      -0.834000       16.0000           0
     23216 TIP3     3762     TP3      H1       HW       0.417000       1.00800           0
     23217 TIP3     3762     TP3      H2       HW       0.417000       1.00800           0
     23218 TIP3     3763     TP3      O        OW      -0.834000       16.0000           0
     23219 TIP3     3763     TP3      H1       HW       0.417000       1.00800           0
     23220 TIP3     3763     TP3      H2       HW       0.417000       1.00800           0
     23221 TIP3     3764     TP3      O        OW      -0.834000       16.0000           0
     23222 TIP3     3764     TP3      H1       HW       0.417000       1.00800           0
     23223 TIP3     3764     TP3      H2       HW       0.417000       1.00800           0
     23224 TIP3     3765     TP3      O        OW      -0.834000       16.0000           0
     23225 TIP3     3765     TP3      H1       HW       0.417000       1.00800           0
     23226 TIP3     3765     TP3      H2       HW       0.417000       1.00800           0
     23227 TIP3     3766     TP3      O        OW      -0.834000       16.0000           0
     23228 TIP3     3766     TP3      H1       HW       0.417000       1.00800           0
     23229 TIP3     3766     TP3      H2       HW       0.417000       1.00800           0
     23230 TIP3     3767     TP3      O        OW      -0.834000       16.0000           0
     23231 TIP3     3767     TP3      H1       HW       0.417000       1.00800           0
     23232 TIP3     3767     TP3      H2       HW       0.417000       1.00800           0
     23233 TIP3     3768     TP3      O        OW      -0.834000       16.0000           0
     23234 TIP3     3768     TP3      H1       HW       0.417000       1.00800           0
     23235 TIP3     3768     TP3      H2       HW       0.417000       1.00800           0
     23236 TIP3     3769     TP3      O        OW      -0.834000       16.0000           0
     23237 TIP3     3769     TP3      H1       HW       0.417000       1.00800           0
     23238 TIP3     3769     TP3      H2       HW       0.417000       1.00800           0
     23239 TIP3     3770     TP3      O        OW      -0.834000       16.0000           0
     23240 TIP3     3770     TP3      H1       HW       0.417000       1.00800           0
     23241 TIP3     3770     TP3      H2       HW       0.417000       1.00800           0
     23242 TIP3     3771     TP3      O        OW      -0.834000       16.0000           0
     23243 TIP3     3771     TP3      H1       HW       0.417000       1.00800           0
     23244 TIP3     3771     TP3      H2       HW       0.417000       1.00800           0
     23245 TIP3     3772     TP3      O        OW      -0.834000       16.0000           0
     23246 TIP3     3772     TP3      H1       HW       0.417000       1.00800           0
     23247 TIP3     3772     TP3      H2       HW       0.417000       1.00800           0
     23248 TIP3     3773     TP3      O        OW      -0.834000       16.0000           0
     23249 TIP3     3773     TP3      H1       HW       0.417000       1.00800           0
     23250 TIP3     3773     TP3      H2       HW       0.417000       1.00800           0
     23251 TIP3     3774     TP3      O        OW      -0.834000       16.0000           0
     23252 TIP3     3774     TP3      H1       HW       0.417000       1.00800           0
     23253 TIP3     3774     TP3      H2       HW       0.417000       1.00800           0
     23254 TIP3     3775     TP3      O        OW      -0.834000       16.0000           0
     23255 TIP3     3775     TP3      H1       HW       0.417000       1.00800           0
     23256 TIP3     3775     TP3      H2       HW       0.417000       1.00800           0
     23257 TIP3     3776     TP3      O        OW      -0.834000       16.0000           0
     23258 TIP3     3776     TP3      H1       HW       0.417000       1.00800           0
     23259 TIP3     3776     TP3      H2       HW       0.417000       1.00800           0
     23260 TIP3     3777     TP3      O        OW      -0.834000       16.0000           0
     23261 TIP3     3777     TP3      H1       HW       0.417000       1.00800           0
     23262 TIP3     3777     TP3      H2       HW       0.417000       1.00800           0
     23263 TIP3     3778     TP3      O        OW      -0.834000       16.0000           0
     23264 TIP3     3778     TP3      H1       HW       0.417000       1.00800           0
     23265 TIP3     3778     TP3      H2       HW       0.417000       1.00800           0
     23266 TIP3     3779     TP3      O        OW      -0.834000       16.0000           0
     23267 TIP3     3779     TP3      H1       HW       0.417000       1.00800           0
     23268 TIP3     3779     TP3      H2       HW       0.417000       1.00800           0
     23269 TIP3     3780     TP3      O        OW      -0.834000       16.0000           0
     23270 TIP3     3780     TP3      H1       HW       0.417000       1.00800           0
     23271 TIP3     3780     TP3      H2       HW       0.417000       1.00800           0
     23272 TIP3     3781     TP3      O        OW      -0.834000       16.0000           0
     23273 TIP3     3781     TP3      H1       HW       0.417000       1.00800           0
     23274 TIP3     3781     TP3      H2       HW       0.417000       1.00800           0
     23275 TIP3     3782     TP3      O        OW      -0.834000       16.0000           0
     23276 TIP3     3782     TP3      H1       HW       0.417000       1.00800           0
     23277 TIP3     3782     TP3      H2       HW       0.417000       1.00800           0
     23278 TIP3     3783     TP3      O        OW      -0.834000       16.0000           0
     23279 TIP3     3783     TP3      H1       HW       0.417000       1.00800           0
     23280 TIP3     3783     TP3      H2       HW       0.417000       1.00800           0
     23281 TIP3     3784     TP3      O        OW      -0.834000       16.0000           0
     23282 TIP3     3784     TP3      H1       HW       0.417000       1.00800           0
     23283 TIP3     3784     TP3      H2       HW       0.417000       1.00800           0
     23284 TIP3     3785     TP3      O        OW      -0.834000       16.0000           0
     23285 TIP3     3785     TP3      H1       HW       0.417000       1.00800           0
     23286 TIP3     3785     TP3      H2       HW       0.417000       1.00800           0
     23287 TIP3     3786     TP3      O        OW      -0.834000       16.0000           0
     23288 TIP3     3786     TP3      H1       HW       0.417000       1.00800           0
     23289 TIP3     3786     TP3      H2       HW       0.417000       1.00800           0
     23290 TIP3     3787     TP3      O        OW      -0.834000       16.0000           0
     23291 TIP3     3787     TP3      H1       HW       0.417000       1.00800           0
     23292 TIP3     3787     TP3      H2       HW       0.417000       1.00800           0
     23293 TIP3     3788     TP3      O        OW      -0.834000       16.0000           0
     23294 TIP3     3788     TP3      H1       HW       0.417000       1.00800           0
     23295 TIP3     3788     TP3      H2       HW       0.417000       1.00800           0
     23296 TIP3     3789     TP3      O        OW      -0.834000       16.0000           0
     23297 TIP3     3789     TP3      H1       HW       0.417000       1.00800           0
     23298 TIP3     3789     TP3      H2       HW       0.417000       1.00800           0
     23299 TIP3     3790     TP3      O        OW      -0.834000       16.0000           0
     23300 TIP3     3790     TP3      H1       HW       0.417000       1.00800           0
     23301 TIP3     3790     TP3      H2       HW       0.417000       1.00800           0
     23302 TIP3     3791     TP3      O        OW      -0.834000       16.0000           0
     23303 TIP3     3791     TP3      H1       HW       0.417000       1.00800           0
     23304 TIP3     3791     TP3      H2       HW       0.417000       1.00800           0
     23305 TIP3     3792     TP3      O        OW      -0.834000       16.0000           0
     23306 TIP3     3792     TP3      H1       HW       0.417000       1.00800           0
     23307 TIP3     3792     TP3      H2       HW       0.417000       1.00800           0
     23308 TIP3     3793     TP3      O        OW      -0.834000       16.0000           0
     23309 TIP3     3793     TP3      H1       HW       0.417000       1.00800           0
     23310 TIP3     3793     TP3      H2       HW       0.417000       1.00800           0
     23311 TIP3     3794     TP3      O        OW      -0.834000       16.0000           0
     23312 TIP3     3794     TP3      H1       HW       0.417000       1.00800           0
     23313 TIP3     3794     TP3      H2       HW       0.417000       1.00800           0
     23314 TIP3     3795     TP3      O        OW      -0.834000       16.0000           0
     23315 TIP3     3795     TP3      H1       HW       0.417000       1.00800           0
     23316 TIP3     3795     TP3      H2       HW       0.417000       1.00800           0
     23317 TIP3     3796     TP3      O        OW      -0.834000       16.0000           0
     23318 TIP3     3796     TP3      H1       HW       0.417000       1.00800           0
     23319 TIP3     3796     TP3      H2       HW       0.417000       1.00800           0
     23320 TIP3     3797     TP3      O        OW      -0.834000       16.0000           0
     23321 TIP3     3797     TP3      H1       HW       0.417000       1.00800           0
     23322 TIP3     3797     TP3      H2       HW       0.417000       1.00800           0
     23323 TIP3     3798     TP3      O        OW      -0.834000       16.0000           0
     23324 TIP3     3798     TP3      H1       HW       0.417000       1.00800           0
     23325 TIP3     3798     TP3      H2       HW       0.417000       1.00800           0
     23326 TIP3     3799     TP3      O        OW      -0.834000       16.0000           0
     23327 TIP3     3799     TP3      H1       HW       0.417000       1.00800           0
     23328 TIP3     3799     TP3      H2       HW       0.417000       1.00800           0
     23329 TIP3     3800     TP3      O        OW      -0.834000       16.0000           0
     23330 TIP3     3800     TP3      H1       HW       0.417000       1.00800           0
     23331 TIP3     3800     TP3      H2       HW       0.417000       1.00800           0
     23332 TIP3     3801     TP3      O        OW      -0.834000       16.0000           0
     23333 TIP3     3801     TP3      H1       HW       0.417000       1.00800           0
     23334 TIP3     3801     TP3      H2       HW       0.417000       1.00800           0
     23335 TIP3     3802     TP3      O        OW      -0.834000       16.0000           0
     23336 TIP3     3802     TP3      H1       HW       0.417000       1.00800           0
     23337 TIP3     3802     TP3      H2       HW       0.417000       1.00800           0
     23338 TIP3     3803     TP3      O        OW      -0.834000       16.0000           0
     23339 TIP3     3803     TP3      H1       HW       0.417000       1.00800           0
     23340 TIP3     3803     TP3      H2       HW       0.417000       1.00800           0
     23341 TIP3     3804     TP3      O        OW      -0.834000       16.0000           0
     23342 TIP3     3804     TP3      H1       HW       0.417000       1.00800           0
     23343 TIP3     3804     TP3      H2       HW       0.417000       1.00800           0
     23344 TIP3     3805     TP3      O        OW      -0.834000       16.0000           0
     23345 TIP3     3805     TP3      H1       HW       0.417000       1.00800           0
     23346 TIP3     3805     TP3      H2       HW       0.417000       1.00800           0
     23347 TIP3     3806     TP3      O        OW      -0.834000       16.0000           0
     23348 TIP3     3806     TP3      H1       HW       0.417000       1.00800           0
     23349 TIP3     3806     TP3      H2       HW       0.417000       1.00800           0
     23350 TIP3     3807     TP3      O        OW      -0.834000       16.0000           0
     23351 TIP3     3807     TP3      H1       HW       0.417000       1.00800           0
     23352 TIP3     3807     TP3      H2       HW       0.417000       1.00800           0
     23353 TIP3     3808     TP3      O        OW      -0.834000       16.0000           0
     23354 TIP3     3808     TP3      H1       HW       0.417000       1.00800           0
     23355 TIP3     3808     TP3      H2       HW       0.417000       1.00800           0
     23356 TIP3     3809     TP3      O        OW      -0.834000       16.0000           0
     23357 TIP3     3809     TP3      H1       HW       0.417000       1.00800           0
     23358 TIP3     3809     TP3      H2       HW       0.417000       1.00800           0
     23359 TIP3     3810     TP3      O        OW      -0.834000       16.0000           0
     23360 TIP3     3810     TP3      H1       HW       0.417000       1.00800           0
     23361 TIP3     3810     TP3      H2       HW       0.417000       1.00800           0
     23362 TIP3     3811     TP3      O        OW      -0.834000       16.0000           0
     23363 TIP3     3811     TP3      H1       HW       0.417000       1.00800           0
     23364 TIP3     3811     TP3      H2       HW       0.417000       1.00800           0
     23365 TIP3     3812     TP3      O        OW      -0.834000       16.0000           0
     23366 TIP3     3812     TP3      H1       HW       0.417000       1.00800           0
     23367 TIP3     3812     TP3      H2       HW       0.417000       1.00800           0
     23368 TIP3     3813     TP3      O        OW      -0.834000       16.0000           0
     23369 TIP3     3813     TP3      H1       HW       0.417000       1.00800           0
     23370 TIP3     3813     TP3      H2       HW       0.417000       1.00800           0
     23371 TIP3     3814     TP3      O        OW      -0.834000       16.0000           0
     23372 TIP3     3814     TP3      H1       HW       0.417000       1.00800           0
     23373 TIP3     3814     TP3      H2       HW       0.417000       1.00800           0
     23374 TIP3     3815     TP3      O        OW      -0.834000       16.0000           0
     23375 TIP3     3815     TP3      H1       HW       0.417000       1.00800           0
     23376 TIP3     3815     TP3      H2       HW       0.417000       1.00800           0
     23377 TIP3     3816     TP3      O        OW      -0.834000       16.0000           0
     23378 TIP3     3816     TP3      H1       HW       0.417000       1.00800           0
     23379 TIP3     3816     TP3      H2       HW       0.417000       1.00800           0
     23380 TIP3     3817     TP3      O        OW      -0.834000       16.0000           0
     23381 TIP3     3817     TP3      H1       HW       0.417000       1.00800           0
     23382 TIP3     3817     TP3      H2       HW       0.417000       1.00800           0
     23383 TIP3     3818     TP3      O        OW      -0.834000       16.0000           0
     23384 TIP3     3818     TP3      H1       HW       0.417000       1.00800           0
     23385 TIP3     3818     TP3      H2       HW       0.417000       1.00800           0
     23386 TIP3     3819     TP3      O        OW      -0.834000       16.0000           0
     23387 TIP3     3819     TP3      H1       HW       0.417000       1.00800           0
     23388 TIP3     3819     TP3      H2       HW       0.417000       1.00800           0
     23389 TIP3     3820     TP3      O        OW      -0.834000       16.0000           0
     23390 TIP3     3820     TP3      H1       HW       0.417000       1.00800           0
     23391 TIP3     3820     TP3      H2       HW       0.417000       1.00800           0
     23392 TIP3     3821     TP3      O        OW      -0.834000       16.0000           0
     23393 TIP3     3821     TP3      H1       HW       0.417000       1.00800           0
     23394 TIP3     3821     TP3      H2       HW       0.417000       1.00800           0
     23395 TIP3     3822     TP3      O        OW      -0.834000       16.0000           0
     23396 TIP3     3822     TP3      H1       HW       0.417000       1.00800           0
     23397 TIP3     3822     TP3      H2       HW       0.417000       1.00800           0
     23398 TIP3     3823     TP3      O        OW      -0.834000       16.0000           0
     23399 TIP3     3823     TP3      H1       HW       0.417000       1.00800           0
     23400 TIP3     3823     TP3      H2       HW       0.417000       1.00800           0
     23401 TIP3     3824     TP3      O        OW      -0.834000       16.0000           0
     23402 TIP3     3824     TP3      H1       HW       0.417000       1.00800           0
     23403 TIP3     3824     TP3      H2       HW       0.417000       1.00800           0
     23404 TIP3     3825     TP3      O        OW      -0.834000       16.0000           0
     23405 TIP3     3825     TP3      H1       HW       0.417000       1.00800           0
     23406 TIP3     3825     TP3      H2       HW       0.417000       1.00800           0
     23407 TIP3     3826     TP3      O        OW      -0.834000       16.0000           0
     23408 TIP3     3826     TP3      H1       HW       0.417000       1.00800           0
     23409 TIP3     3826     TP3      H2       HW       0.417000       1.00800           0
     23410 TIP3     3827     TP3      O        OW      -0.834000       16.0000           0
     23411 TIP3     3827     TP3      H1       HW       0.417000       1.00800           0
     23412 TIP3     3827     TP3      H2       HW       0.417000       1.00800           0
     23413 TIP3     3828     TP3      O        OW      -0.834000       16.0000           0
     23414 TIP3     3828     TP3      H1       HW       0.417000       1.00800           0
     23415 TIP3     3828     TP3      H2       HW       0.417000       1.00800           0
     23416 TIP3     3829     TP3      O        OW      -0.834000       16.0000           0
     23417 TIP3     3829     TP3      H1       HW       0.417000       1.00800           0
     23418 TIP3     3829     TP3      H2       HW       0.417000       1.00800           0
     23419 TIP3     3830     TP3      O        OW      -0.834000       16.0000           0
     23420 TIP3     3830     TP3      H1       HW       0.417000       1.00800           0
     23421 TIP3     3830     TP3      H2       HW       0.417000       1.00800           0
     23422 TIP3     3831     TP3      O        OW      -0.834000       16.0000           0
     23423 TIP3     3831     TP3      H1       HW       0.417000       1.00800           0
     23424 TIP3     3831     TP3      H2       HW       0.417000       1.00800           0
     23425 TIP3     3832     TP3      O        OW      -0.834000       16.0000           0
     23426 TIP3     3832     TP3      H1       HW       0.417000       1.00800           0
     23427 TIP3     3832     TP3      H2       HW       0.417000       1.00800           0
     23428 TIP3     3833     TP3      O        OW      -0.834000       16.0000           0
     23429 TIP3     3833     TP3      H1       HW       0.417000       1.00800           0
     23430 TIP3     3833     TP3      H2       HW       0.417000       1.00800           0
     23431 TIP3     3834     TP3      O        OW      -0.834000       16.0000           0
     23432 TIP3     3834     TP3      H1       HW       0.417000       1.00800           0
     23433 TIP3     3834     TP3      H2       HW       0.417000       1.00800           0
     23434 TIP3     3835     TP3      O        OW      -0.834000       16.0000           0
     23435 TIP3     3835     TP3      H1       HW       0.417000       1.00800           0
     23436 TIP3     3835     TP3      H2       HW       0.417000       1.00800           0
     23437 TIP3     3836     TP3      O        OW      -0.834000       16.0000           0
     23438 TIP3     3836     TP3      H1       HW       0.417000       1.00800           0
     23439 TIP3     3836     TP3      H2       HW       0.417000       1.00800           0
     23440 TIP3     3837     TP3      O        OW      -0.834000       16.0000           0
     23441 TIP3     3837     TP3      H1       HW       0.417000       1.00800           0
     23442 TIP3     3837     TP3      H2       HW       0.417000       1.00800           0
     23443 TIP3     3838     TP3      O        OW      -0.834000       16.0000           0
     23444 TIP3     3838     TP3      H1       HW       0.417000       1.00800           0
     23445 TIP3     3838     TP3      H2       HW       0.417000       1.00800           0
     23446 TIP3     3839     TP3      O        OW      -0.834000       16.0000           0
     23447 TIP3     3839     TP3      H1       HW       0.417000       1.00800           0
     23448 TIP3     3839     TP3      H2       HW       0.417000       1.00800           0
     23449 TIP3     3840     TP3      O        OW      -0.834000       16.0000           0
     23450 TIP3     3840     TP3      H1       HW       0.417000       1.00800           0
     23451 TIP3     3840     TP3      H2       HW       0.417000       1.00800           0
     23452 TIP3     3841     TP3      O        OW      -0.834000       16.0000           0
     23453 TIP3     3841     TP3      H1       HW       0.417000       1.00800           0
     23454 TIP3     3841     TP3      H2       HW       0.417000       1.00800           0
     23455 TIP3     3842     TP3      O        OW      -0.834000       16.0000           0
     23456 TIP3     3842     TP3      H1       HW       0.417000       1.00800           0
     23457 TIP3     3842     TP3      H2       HW       0.417000       1.00800           0
     23458 TIP3     3843     TP3      O        OW      -0.834000       16.0000           0
     23459 TIP3     3843     TP3      H1       HW       0.417000       1.00800           0
     23460 TIP3     3843     TP3      H2       HW       0.417000       1.00800           0
     23461 TIP3     3844     TP3      O        OW      -0.834000       16.0000           0
     23462 TIP3     3844     TP3      H1       HW       0.417000       1.00800           0
     23463 TIP3     3844     TP3      H2       HW       0.417000       1.00800           0
     23464 TIP3     3845     TP3      O        OW      -0.834000       16.0000           0
     23465 TIP3     3845     TP3      H1       HW       0.417000       1.00800           0
     23466 TIP3     3845     TP3      H2       HW       0.417000       1.00800           0
     23467 TIP3     3846     TP3      O        OW      -0.834000       16.0000           0
     23468 TIP3     3846     TP3      H1       HW       0.417000       1.00800           0
     23469 TIP3     3846     TP3      H2       HW       0.417000       1.00800           0
     23470 TIP3     3847     TP3      O        OW      -0.834000       16.0000           0
     23471 TIP3     3847     TP3      H1       HW       0.417000       1.00800           0
     23472 TIP3     3847     TP3      H2       HW       0.417000       1.00800           0
     23473 TIP3     3848     TP3      O        OW      -0.834000       16.0000           0
     23474 TIP3     3848     TP3      H1       HW       0.417000       1.00800           0
     23475 TIP3     3848     TP3      H2       HW       0.417000       1.00800           0
     23476 TIP3     3849     TP3      O        OW      -0.834000       16.0000           0
     23477 TIP3     3849     TP3      H1       HW       0.417000       1.00800           0
     23478 TIP3     3849     TP3      H2       HW       0.417000       1.00800           0
     23479 TIP3     3850     TP3      O        OW      -0.834000       16.0000           0
     23480 TIP3     3850     TP3      H1       HW       0.417000       1.00800           0
     23481 TIP3     3850     TP3      H2       HW       0.417000       1.00800           0
     23482 TIP3     3851     TP3      O        OW      -0.834000       16.0000           0
     23483 TIP3     3851     TP3      H1       HW       0.417000       1.00800           0
     23484 TIP3     3851     TP3      H2       HW       0.417000       1.00800           0
     23485 TIP3     3852     TP3      O        OW      -0.834000       16.0000           0
     23486 TIP3     3852     TP3      H1       HW       0.417000       1.00800           0
     23487 TIP3     3852     TP3      H2       HW       0.417000       1.00800           0
     23488 TIP3     3853     TP3      O        OW      -0.834000       16.0000           0
     23489 TIP3     3853     TP3      H1       HW       0.417000       1.00800           0
     23490 TIP3     3853     TP3      H2       HW       0.417000       1.00800           0
     23491 TIP3     3854     TP3      O        OW      -0.834000       16.0000           0
     23492 TIP3     3854     TP3      H1       HW       0.417000       1.00800           0
     23493 TIP3     3854     TP3      H2       HW       0.417000       1.00800           0
     23494 TIP3     3855     TP3      O        OW      -0.834000       16.0000           0
     23495 TIP3     3855     TP3      H1       HW       0.417000       1.00800           0
     23496 TIP3     3855     TP3      H2       HW       0.417000       1.00800           0
     23497 TIP3     3856     TP3      O        OW      -0.834000       16.0000           0
     23498 TIP3     3856     TP3      H1       HW       0.417000       1.00800           0
     23499 TIP3     3856     TP3      H2       HW       0.417000       1.00800           0
     23500 TIP3     3857     TP3      O        OW      -0.834000       16.0000           0
     23501 TIP3     3857     TP3      H1       HW       0.417000       1.00800           0
     23502 TIP3     3857     TP3      H2       HW       0.417000       1.00800           0
     23503 TIP3     3858     TP3      O        OW      -0.834000       16.0000           0
     23504 TIP3     3858     TP3      H1       HW       0.417000       1.00800           0
     23505 TIP3     3858     TP3      H2       HW       0.417000       1.00800           0
     23506 TIP3     3859     TP3      O        OW      -0.834000       16.0000           0
     23507 TIP3     3859     TP3      H1       HW       0.417000       1.00800           0
     23508 TIP3     3859     TP3      H2       HW       0.417000       1.00800           0
     23509 TIP3     3860     TP3      O        OW      -0.834000       16.0000           0
     23510 TIP3     3860     TP3      H1       HW       0.417000       1.00800           0
     23511 TIP3     3860     TP3      H2       HW       0.417000       1.00800           0
     23512 TIP3     3861     TP3      O        OW      -0.834000       16.0000           0
     23513 TIP3     3861     TP3      H1       HW       0.417000       1.00800           0
     23514 TIP3     3861     TP3      H2       HW       0.417000       1.00800           0
     23515 TIP3     3862     TP3      O        OW      -0.834000       16.0000           0
     23516 TIP3     3862     TP3      H1       HW       0.417000       1.00800           0
     23517 TIP3     3862     TP3      H2       HW       0.417000       1.00800           0
     23518 TIP3     3863     TP3      O        OW      -0.834000       16.0000           0
     23519 TIP3     3863     TP3      H1       HW       0.417000       1.00800           0
     23520 TIP3     3863     TP3      H2       HW       0.417000       1.00800           0
     23521 TIP3     3864     TP3      O        OW      -0.834000       16.0000           0
     23522 TIP3     3864     TP3      H1       HW       0.417000       1.00800           0
     23523 TIP3     3864     TP3      H2       HW       0.417000       1.00800           0
     23524 TIP3     3865     TP3      O        OW      -0.834000       16.0000           0
     23525 TIP3     3865     TP3      H1       HW       0.417000       1.00800           0
     23526 TIP3     3865     TP3      H2       HW       0.417000       1.00800           0
     23527 TIP3     3866     TP3      O        OW      -0.834000       16.0000           0
     23528 TIP3     3866     TP3      H1       HW       0.417000       1.00800           0
     23529 TIP3     3866     TP3      H2       HW       0.417000       1.00800           0
     23530 TIP3     3867     TP3      O        OW      -0.834000       16.0000           0
     23531 TIP3     3867     TP3      H1       HW       0.417000       1.00800           0
     23532 TIP3     3867     TP3      H2       HW       0.417000       1.00800           0
     23533 TIP3     3868     TP3      O        OW      -0.834000       16.0000           0
     23534 TIP3     3868     TP3      H1       HW       0.417000       1.00800           0
     23535 TIP3     3868     TP3      H2       HW       0.417000       1.00800           0
     23536 TIP3     3869     TP3      O        OW      -0.834000       16.0000           0
     23537 TIP3     3869     TP3      H1       HW       0.417000       1.00800           0
     23538 TIP3     3869     TP3      H2       HW       0.417000       1.00800           0
     23539 TIP3     3870     TP3      O        OW      -0.834000       16.0000           0
     23540 TIP3     3870     TP3      H1       HW       0.417000       1.00800           0
     23541 TIP3     3870     TP3      H2       HW       0.417000       1.00800           0
     23542 TIP3     3871     TP3      O        OW      -0.834000       16.0000           0
     23543 TIP3     3871     TP3      H1       HW       0.417000       1.00800           0
     23544 TIP3     3871     TP3      H2       HW       0.417000       1.00800           0
     23545 TIP3     3872     TP3      O        OW      -0.834000       16.0000           0
     23546 TIP3     3872     TP3      H1       HW       0.417000       1.00800           0
     23547 TIP3     3872     TP3      H2       HW       0.417000       1.00800           0
     23548 TIP3     3873     TP3      O        OW      -0.834000       16.0000           0
     23549 TIP3     3873     TP3      H1       HW       0.417000       1.00800           0
     23550 TIP3     3873     TP3      H2       HW       0.417000       1.00800           0
     23551 TIP3     3874     TP3      O        OW      -0.834000       16.0000           0
     23552 TIP3     3874     TP3      H1       HW       0.417000       1.00800           0
     23553 TIP3     3874     TP3      H2       HW       0.417000       1.00800           0
     23554 TIP3     3875     TP3      O        OW      -0.834000       16.0000           0
     23555 TIP3     3875     TP3      H1       HW       0.417000       1.00800           0
     23556 TIP3     3875     TP3      H2       HW       0.417000       1.00800           0
     23557 TIP3     3876     TP3      O        OW      -0.834000       16.0000           0
     23558 TIP3     3876     TP3      H1       HW       0.417000       1.00800           0
     23559 TIP3     3876     TP3      H2       HW       0.417000       1.00800           0
     23560 TIP3     3877     TP3      O        OW      -0.834000       16.0000           0
     23561 TIP3     3877     TP3      H1       HW       0.417000       1.00800           0
     23562 TIP3     3877     TP3      H2       HW       0.417000       1.00800           0
     23563 TIP3     3878     TP3      O        OW      -0.834000       16.0000           0
     23564 TIP3     3878     TP3      H1       HW       0.417000       1.00800           0
     23565 TIP3     3878     TP3      H2       HW       0.417000       1.00800           0
     23566 TIP3     3879     TP3      O        OW      -0.834000       16.0000           0
     23567 TIP3     3879     TP3      H1       HW       0.417000       1.00800           0
     23568 TIP3     3879     TP3      H2       HW       0.417000       1.00800           0
     23569 TIP3     3880     TP3      O        OW      -0.834000       16.0000           0
     23570 TIP3     3880     TP3      H1       HW       0.417000       1.00800           0
     23571 TIP3     3880     TP3      H2       HW       0.417000       1.00800           0
     23572 TIP3     3881     TP3      O        OW      -0.834000       16.0000           0
     23573 TIP3     3881     TP3      H1       HW       0.417000       1.00800           0
     23574 TIP3     3881     TP3      H2       HW       0.417000       1.00800           0
     23575 TIP3     3882     TP3      O        OW      -0.834000       16.0000           0
     23576 TIP3     3882     TP3      H1       HW       0.417000       1.00800           0
     23577 TIP3     3882     TP3      H2       HW       0.417000       1.00800           0
     23578 TIP3     3883     TP3      O        OW      -0.834000       16.0000           0
     23579 TIP3     3883     TP3      H1       HW       0.417000       1.00800           0
     23580 TIP3     3883     TP3      H2       HW       0.417000       1.00800           0
     23581 TIP3     3884     TP3      O        OW      -0.834000       16.0000           0
     23582 TIP3     3884     TP3      H1       HW       0.417000       1.00800           0
     23583 TIP3     3884     TP3      H2       HW       0.417000       1.00800           0
     23584 TIP3     3885     TP3      O        OW      -0.834000       16.0000           0
     23585 TIP3     3885     TP3      H1       HW       0.417000       1.00800           0
     23586 TIP3     3885     TP3      H2       HW       0.417000       1.00800           0
     23587 TIP3     3886     TP3      O        OW      -0.834000       16.0000           0
     23588 TIP3     3886     TP3      H1       HW       0.417000       1.00800           0
     23589 TIP3     3886     TP3      H2       HW       0.417000       1.00800           0
     23590 TIP3     3887     TP3      O        OW      -0.834000       16.0000           0
     23591 TIP3     3887     TP3      H1       HW       0.417000       1.00800           0
     23592 TIP3     3887     TP3      H2       HW       0.417000       1.00800           0
     23593 TIP3     3888     TP3      O        OW      -0.834000       16.0000           0
     23594 TIP3     3888     TP3      H1       HW       0.417000       1.00800           0
     23595 TIP3     3888     TP3      H2       HW       0.417000       1.00800           0
     23596 TIP3     3889     TP3      O        OW      -0.834000       16.0000           0
     23597 TIP3     3889     TP3      H1       HW       0.417000       1.00800           0
     23598 TIP3     3889     TP3      H2       HW       0.417000       1.00800           0
     23599 TIP3     3890     TP3      O        OW      -0.834000       16.0000           0
     23600 TIP3     3890     TP3      H1       HW       0.417000       1.00800           0
     23601 TIP3     3890     TP3      H2       HW       0.417000       1.00800           0
     23602 TIP3     3891     TP3      O        OW      -0.834000       16.0000           0
     23603 TIP3     3891     TP3      H1       HW       0.417000       1.00800           0
     23604 TIP3     3891     TP3      H2       HW       0.417000       1.00800           0
     23605 TIP3     3892     TP3      O        OW      -0.834000       16.0000           0
     23606 TIP3     3892     TP3      H1       HW       0.417000       1.00800           0
     23607 TIP3     3892     TP3      H2       HW       0.417000       1.00800           0
     23608 TIP3     3893     TP3      O        OW      -0.834000       16.0000           0
     23609 TIP3     3893     TP3      H1       HW       0.417000       1.00800           0
     23610 TIP3     3893     TP3      H2       HW       0.417000       1.00800           0
     23611 TIP3     3894     TP3      O        OW      -0.834000       16.0000           0
     23612 TIP3     3894     TP3      H1       HW       0.417000       1.00800           0
     23613 TIP3     3894     TP3      H2       HW       0.417000       1.00800           0
     23614 TIP3     3895     TP3      O        OW      -0.834000       16.0000           0
     23615 TIP3     3895     TP3      H1       HW       0.417000       1.00800           0
     23616 TIP3     3895     TP3      H2       HW       0.417000       1.00800           0
     23617 TIP3     3896     TP3      O        OW      -0.834000       16.0000           0
     23618 TIP3     3896     TP3      H1       HW       0.417000       1.00800           0
     23619 TIP3     3896     TP3      H2       HW       0.417000       1.00800           0
     23620 TIP3     3897     TP3      O        OW      -0.834000       16.0000           0
     23621 TIP3     3897     TP3      H1       HW       0.417000       1.00800           0
     23622 TIP3     3897     TP3      H2       HW       0.417000       1.00800           0
     23623 TIP3     3898     TP3      O        OW      -0.834000       16.0000           0
     23624 TIP3     3898     TP3      H1       HW       0.417000       1.00800           0
     23625 TIP3     3898     TP3      H2       HW       0.417000       1.00800           0
     23626 TIP3     3899     TP3      O        OW      -0.834000       16.0000           0
     23627 TIP3     3899     TP3      H1       HW       0.417000       1.00800           0
     23628 TIP3     3899     TP3      H2       HW       0.417000       1.00800           0
     23629 TIP3     3900     TP3      O        OW      -0.834000       16.0000           0
     23630 TIP3     3900     TP3      H1       HW       0.417000       1.00800           0
     23631 TIP3     3900     TP3      H2       HW       0.417000       1.00800           0
     23632 TIP3     3901     TP3      O        OW      -0.834000       16.0000           0
     23633 TIP3     3901     TP3      H1       HW       0.417000       1.00800           0
     23634 TIP3     3901     TP3      H2       HW       0.417000       1.00800           0
     23635 TIP3     3902     TP3      O        OW      -0.834000       16.0000           0
     23636 TIP3     3902     TP3      H1       HW       0.417000       1.00800           0
     23637 TIP3     3902     TP3      H2       HW       0.417000       1.00800           0
     23638 TIP3     3903     TP3      O        OW      -0.834000       16.0000           0
     23639 TIP3     3903     TP3      H1       HW       0.417000       1.00800           0
     23640 TIP3     3903     TP3      H2       HW       0.417000       1.00800           0
     23641 TIP3     3904     TP3      O        OW      -0.834000       16.0000           0
     23642 TIP3     3904     TP3      H1       HW       0.417000       1.00800           0
     23643 TIP3     3904     TP3      H2       HW       0.417000       1.00800           0
     23644 TIP3     3905     TP3      O        OW      -0.834000       16.0000           0
     23645 TIP3     3905     TP3      H1       HW       0.417000       1.00800           0
     23646 TIP3     3905     TP3      H2       HW       0.417000       1.00800           0
     23647 TIP3     3906     TP3      O        OW      -0.834000       16.0000           0
     23648 TIP3     3906     TP3      H1       HW       0.417000       1.00800           0
     23649 TIP3     3906     TP3      H2       HW       0.417000       1.00800           0
     23650 TIP3     3907     TP3      O        OW      -0.834000       16.0000           0
     23651 TIP3     3907     TP3      H1       HW       0.417000       1.00800           0
     23652 TIP3     3907     TP3      H2       HW       0.417000       1.00800           0
     23653 TIP3     3908     TP3      O        OW      -0.834000       16.0000           0
     23654 TIP3     3908     TP3      H1       HW       0.417000       1.00800           0
     23655 TIP3     3908     TP3      H2       HW       0.417000       1.00800           0
     23656 TIP3     3909     TP3      O        OW      -0.834000       16.0000           0
     23657 TIP3     3909     TP3      H1       HW       0.417000       1.00800           0
     23658 TIP3     3909     TP3      H2       HW       0.417000       1.00800           0
     23659 TIP3     3910     TP3      O        OW      -0.834000       16.0000           0
     23660 TIP3     3910     TP3      H1       HW       0.417000       1.00800           0
     23661 TIP3     3910     TP3      H2       HW       0.417000       1.00800           0
     23662 TIP3     3911     TP3      O        OW      -0.834000       16.0000           0
     23663 TIP3     3911     TP3      H1       HW       0.417000       1.00800           0
     23664 TIP3     3911     TP3      H2       HW       0.417000       1.00800           0
     23665 TIP3     3912     TP3      O        OW      -0.834000       16.0000           0
     23666 TIP3     3912     TP3      H1       HW       0.417000       1.00800           0
     23667 TIP3     3912     TP3      H2       HW       0.417000       1.00800           0
     23668 TIP3     3913     TP3      O        OW      -0.834000       16.0000           0
     23669 TIP3     3913     TP3      H1       HW       0.417000       1.00800           0
     23670 TIP3     3913     TP3      H2       HW       0.417000       1.00800           0
     23671 TIP3     3914     TP3      O        OW      -0.834000       16.0000           0
     23672 TIP3     3914     TP3      H1       HW       0.417000       1.00800           0
     23673 TIP3     3914     TP3      H2       HW       0.417000       1.00800           0
     23674 TIP3     3915     TP3      O        OW      -0.834000       16.0000           0
     23675 TIP3     3915     TP3      H1       HW       0.417000       1.00800           0
     23676 TIP3     3915     TP3      H2       HW       0.417000       1.00800           0
     23677 TIP3     3916     TP3      O        OW      -0.834000       16.0000           0
     23678 TIP3     3916     TP3      H1       HW       0.417000       1.00800           0
     23679 TIP3     3916     TP3      H2       HW       0.417000       1.00800           0
     23680 TIP3     3917     TP3      O        OW      -0.834000       16.0000           0
     23681 TIP3     3917     TP3      H1       HW       0.417000       1.00800           0
     23682 TIP3     3917     TP3      H2       HW       0.417000       1.00800           0
     23683 TIP3     3918     TP3      O        OW      -0.834000       16.0000           0
     23684 TIP3     3918     TP3      H1       HW       0.417000       1.00800           0
     23685 TIP3     3918     TP3      H2       HW       0.417000       1.00800           0
     23686 TIP3     3919     TP3      O        OW      -0.834000       16.0000           0
     23687 TIP3     3919     TP3      H1       HW       0.417000       1.00800           0
     23688 TIP3     3919     TP3      H2       HW       0.417000       1.00800           0
     23689 TIP3     3920     TP3      O        OW      -0.834000       16.0000           0
     23690 TIP3     3920     TP3      H1       HW       0.417000       1.00800           0
     23691 TIP3     3920     TP3      H2       HW       0.417000       1.00800           0
     23692 TIP3     3921     TP3      O        OW      -0.834000       16.0000           0
     23693 TIP3     3921     TP3      H1       HW       0.417000       1.00800           0
     23694 TIP3     3921     TP3      H2       HW       0.417000       1.00800           0
     23695 TIP3     3922     TP3      O        OW      -0.834000       16.0000           0
     23696 TIP3     3922     TP3      H1       HW       0.417000       1.00800           0
     23697 TIP3     3922     TP3      H2       HW       0.417000       1.00800           0
     23698 TIP3     3923     TP3      O        OW      -0.834000       16.0000           0
     23699 TIP3     3923     TP3      H1       HW       0.417000       1.00800           0
     23700 TIP3     3923     TP3      H2       HW       0.417000       1.00800           0
     23701 TIP3     3924     TP3      O        OW      -0.834000       16.0000           0
     23702 TIP3     3924     TP3      H1       HW       0.417000       1.00800           0
     23703 TIP3     3924     TP3      H2       HW       0.417000       1.00800           0
     23704 TIP3     3925     TP3      O        OW      -0.834000       16.0000           0
     23705 TIP3     3925     TP3      H1       HW       0.417000       1.00800           0
     23706 TIP3     3925     TP3      H2       HW       0.417000       1.00800           0
     23707 TIP3     3926     TP3      O        OW      -0.834000       16.0000           0
     23708 TIP3     3926     TP3      H1       HW       0.417000       1.00800           0
     23709 TIP3     3926     TP3      H2       HW       0.417000       1.00800           0
     23710 TIP3     3927     TP3      O        OW      -0.834000       16.0000           0
     23711 TIP3     3927     TP3      H1       HW       0.417000       1.00800           0
     23712 TIP3     3927     TP3      H2       HW       0.417000       1.00800           0
     23713 TIP3     3928     TP3      O        OW      -0.834000       16.0000           0
     23714 TIP3     3928     TP3      H1       HW       0.417000       1.00800           0
     23715 TIP3     3928     TP3      H2       HW       0.417000       1.00800           0
     23716 TIP3     3929     TP3      O        OW      -0.834000       16.0000           0
     23717 TIP3     3929     TP3      H1       HW       0.417000       1.00800           0
     23718 TIP3     3929     TP3      H2       HW       0.417000       1.00800           0
     23719 TIP3     3930     TP3      O        OW      -0.834000       16.0000           0
     23720 TIP3     3930     TP3      H1       HW       0.417000       1.00800           0
     23721 TIP3     3930     TP3      H2       HW       0.417000       1.00800           0
     23722 TIP3     3931     TP3      O        OW      -0.834000       16.0000           0
     23723 TIP3     3931     TP3      H1       HW       0.417000       1.00800           0
     23724 TIP3     3931     TP3      H2       HW       0.417000       1.00800           0
     23725 TIP3     3932     TP3      O        OW      -0.834000       16.0000           0
     23726 TIP3     3932     TP3      H1       HW       0.417000       1.00800           0
     23727 TIP3     3932     TP3      H2       HW       0.417000       1.00800           0
     23728 TIP3     3933     TP3      O        OW      -0.834000       16.0000           0
     23729 TIP3     3933     TP3      H1       HW       0.417000       1.00800           0
     23730 TIP3     3933     TP3      H2       HW       0.417000       1.00800           0
     23731 TIP3     3934     TP3      O        OW      -0.834000       16.0000           0
     23732 TIP3     3934     TP3      H1       HW       0.417000       1.00800           0
     23733 TIP3     3934     TP3      H2       HW       0.417000       1.00800           0
     23734 TIP3     3935     TP3      O        OW      -0.834000       16.0000           0
     23735 TIP3     3935     TP3      H1       HW       0.417000       1.00800           0
     23736 TIP3     3935     TP3      H2       HW       0.417000       1.00800           0
     23737 TIP3     3936     TP3      O        OW      -0.834000       16.0000           0
     23738 TIP3     3936     TP3      H1       HW       0.417000       1.00800           0
     23739 TIP3     3936     TP3      H2       HW       0.417000       1.00800           0
     23740 TIP3     3937     TP3      O        OW      -0.834000       16.0000           0
     23741 TIP3     3937     TP3      H1       HW       0.417000       1.00800           0
     23742 TIP3     3937     TP3      H2       HW       0.417000       1.00800           0
     23743 TIP3     3938     TP3      O        OW      -0.834000       16.0000           0
     23744 TIP3     3938     TP3      H1       HW       0.417000       1.00800           0
     23745 TIP3     3938     TP3      H2       HW       0.417000       1.00800           0
     23746 TIP3     3939     TP3      O        OW      -0.834000       16.0000           0
     23747 TIP3     3939     TP3      H1       HW       0.417000       1.00800           0
     23748 TIP3     3939     TP3      H2       HW       0.417000       1.00800           0
     23749 TIP3     3940     TP3      O        OW      -0.834000       16.0000           0
     23750 TIP3     3940     TP3      H1       HW       0.417000       1.00800           0
     23751 TIP3     3940     TP3      H2       HW       0.417000       1.00800           0
     23752 TIP3     3941     TP3      O        OW      -0.834000       16.0000           0
     23753 TIP3     3941     TP3      H1       HW       0.417000       1.00800           0
     23754 TIP3     3941     TP3      H2       HW       0.417000       1.00800           0
     23755 TIP3     3942     TP3      O        OW      -0.834000       16.0000           0
     23756 TIP3     3942     TP3      H1       HW       0.417000       1.00800           0
     23757 TIP3     3942     TP3      H2       HW       0.417000       1.00800           0
     23758 TIP3     3943     TP3      O        OW      -0.834000       16.0000           0
     23759 TIP3     3943     TP3      H1       HW       0.417000       1.00800           0
     23760 TIP3     3943     TP3      H2       HW       0.417000       1.00800           0
     23761 TIP3     3944     TP3      O        OW      -0.834000       16.0000           0
     23762 TIP3     3944     TP3      H1       HW       0.417000       1.00800           0
     23763 TIP3     3944     TP3      H2       HW       0.417000       1.00800           0
     23764 TIP3     3945     TP3      O        OW      -0.834000       16.0000           0
     23765 TIP3     3945     TP3      H1       HW       0.417000       1.00800           0
     23766 TIP3     3945     TP3      H2       HW       0.417000       1.00800           0
     23767 TIP3     3946     TP3      O        OW      -0.834000       16.0000           0
     23768 TIP3     3946     TP3      H1       HW       0.417000       1.00800           0
     23769 TIP3     3946     TP3      H2       HW       0.417000       1.00800           0
     23770 TIP3     3947     TP3      O        OW      -0.834000       16.0000           0
     23771 TIP3     3947     TP3      H1       HW       0.417000       1.00800           0
     23772 TIP3     3947     TP3      H2       HW       0.417000       1.00800           0
     23773 TIP3     3948     TP3      O        OW      -0.834000       16.0000           0
     23774 TIP3     3948     TP3      H1       HW       0.417000       1.00800           0
     23775 TIP3     3948     TP3      H2       HW       0.417000       1.00800           0
     23776 TIP3     3949     TP3      O        OW      -0.834000       16.0000           0
     23777 TIP3     3949     TP3      H1       HW       0.417000       1.00800           0
     23778 TIP3     3949     TP3      H2       HW       0.417000       1.00800           0
     23779 TIP3     3950     TP3      O        OW      -0.834000       16.0000           0
     23780 TIP3     3950     TP3      H1       HW       0.417000       1.00800           0
     23781 TIP3     3950     TP3      H2       HW       0.417000       1.00800           0
     23782 TIP3     3951     TP3      O        OW      -0.834000       16.0000           0
     23783 TIP3     3951     TP3      H1       HW       0.417000       1.00800           0
     23784 TIP3     3951     TP3      H2       HW       0.417000       1.00800           0
     23785 TIP3     3952     TP3      O        OW      -0.834000       16.0000           0
     23786 TIP3     3952     TP3      H1       HW       0.417000       1.00800           0
     23787 TIP3     3952     TP3      H2       HW       0.417000       1.00800           0
     23788 TIP3     3953     TP3      O        OW      -0.834000       16.0000           0
     23789 TIP3     3953     TP3      H1       HW       0.417000       1.00800           0
     23790 TIP3     3953     TP3      H2       HW       0.417000       1.00800           0
     23791 TIP3     3954     TP3      O        OW      -0.834000       16.0000           0
     23792 TIP3     3954     TP3      H1       HW       0.417000       1.00800           0
     23793 TIP3     3954     TP3      H2       HW       0.417000       1.00800           0
     23794 TIP3     3955     TP3      O        OW      -0.834000       16.0000           0
     23795 TIP3     3955     TP3      H1       HW       0.417000       1.00800           0
     23796 TIP3     3955     TP3      H2       HW       0.417000       1.00800           0
     23797 TIP3     3956     TP3      O        OW      -0.834000       16.0000           0
     23798 TIP3     3956     TP3      H1       HW       0.417000       1.00800           0
     23799 TIP3     3956     TP3      H2       HW       0.417000       1.00800           0
     23800 TIP3     3957     TP3      O        OW      -0.834000       16.0000           0
     23801 TIP3     3957     TP3      H1       HW       0.417000       1.00800           0
     23802 TIP3     3957     TP3      H2       HW       0.417000       1.00800           0
     23803 TIP3     3958     TP3      O        OW      -0.834000       16.0000           0
     23804 TIP3     3958     TP3      H1       HW       0.417000       1.00800           0
     23805 TIP3     3958     TP3      H2       HW       0.417000       1.00800           0
     23806 TIP3     3959     TP3      O        OW      -0.834000       16.0000           0
     23807 TIP3     3959     TP3      H1       HW       0.417000       1.00800           0
     23808 TIP3     3959     TP3      H2       HW       0.417000       1.00800           0
     23809 TIP3     3960     TP3      O        OW      -0.834000       16.0000           0
     23810 TIP3     3960     TP3      H1       HW       0.417000       1.00800           0
     23811 TIP3     3960     TP3      H2       HW       0.417000       1.00800           0
     23812 TIP3     3961     TP3      O        OW      -0.834000       16.0000           0
     23813 TIP3     3961     TP3      H1       HW       0.417000       1.00800           0
     23814 TIP3     3961     TP3      H2       HW       0.417000       1.00800           0
     23815 TIP3     3962     TP3      O        OW      -0.834000       16.0000           0
     23816 TIP3     3962     TP3      H1       HW       0.417000       1.00800           0
     23817 TIP3     3962     TP3      H2       HW       0.417000       1.00800           0
     23818 TIP3     3963     TP3      O        OW      -0.834000       16.0000           0
     23819 TIP3     3963     TP3      H1       HW       0.417000       1.00800           0
     23820 TIP3     3963     TP3      H2       HW       0.417000       1.00800           0
     23821 TIP3     3964     TP3      O        OW      -0.834000       16.0000           0
     23822 TIP3     3964     TP3      H1       HW       0.417000       1.00800           0
     23823 TIP3     3964     TP3      H2       HW       0.417000       1.00800           0
     23824 TIP3     3965     TP3      O        OW      -0.834000       16.0000           0
     23825 TIP3     3965     TP3      H1       HW       0.417000       1.00800           0
     23826 TIP3     3965     TP3      H2       HW       0.417000       1.00800           0
     23827 TIP3     3966     TP3      O        OW      -0.834000       16.0000           0
     23828 TIP3     3966     TP3      H1       HW       0.417000       1.00800           0
     23829 TIP3     3966     TP3      H2       HW       0.417000       1.00800           0
     23830 TIP3     3967     TP3      O        OW      -0.834000       16.0000           0
     23831 TIP3     3967     TP3      H1       HW       0.417000       1.00800           0
     23832 TIP3     3967     TP3      H2       HW       0.417000       1.00800           0
     23833 TIP3     3968     TP3      O        OW      -0.834000       16.0000           0
     23834 TIP3     3968     TP3      H1       HW       0.417000       1.00800           0
     23835 TIP3     3968     TP3      H2       HW       0.417000       1.00800           0
     23836 TIP3     3969     TP3      O        OW      -0.834000       16.0000           0
     23837 TIP3     3969     TP3      H1       HW       0.417000       1.00800           0
     23838 TIP3     3969     TP3      H2       HW       0.417000       1.00800           0
     23839 TIP3     3970     TP3      O        OW      -0.834000       16.0000           0
     23840 TIP3     3970     TP3      H1       HW       0.417000       1.00800           0
     23841 TIP3     3970     TP3      H2       HW       0.417000       1.00800           0
     23842 TIP3     3971     TP3      O        OW      -0.834000       16.0000           0
     23843 TIP3     3971     TP3      H1       HW       0.417000       1.00800           0
     23844 TIP3     3971     TP3      H2       HW       0.417000       1.00800           0
     23845 TIP3     3972     TP3      O        OW      -0.834000       16.0000           0
     23846 TIP3     3972     TP3      H1       HW       0.417000       1.00800           0
     23847 TIP3     3972     TP3      H2       HW       0.417000       1.00800           0
     23848 TIP3     3973     TP3      O        OW      -0.834000       16.0000           0
     23849 TIP3     3973     TP3      H1       HW       0.417000       1.00800           0
     23850 TIP3     3973     TP3      H2       HW       0.417000       1.00800           0
     23851 TIP3     3974     TP3      O        OW      -0.834000       16.0000           0
     23852 TIP3     3974     TP3      H1       HW       0.417000       1.00800           0
     23853 TIP3     3974     TP3      H2       HW       0.417000       1.00800           0
     23854 TIP3     3975     TP3      O        OW      -0.834000       16.0000           0
     23855 TIP3     3975     TP3      H1       HW       0.417000       1.00800           0
     23856 TIP3     3975     TP3      H2       HW       0.417000       1.00800           0
     23857 TIP3     3976     TP3      O        OW      -0.834000       16.0000           0
     23858 TIP3     3976     TP3      H1       HW       0.417000       1.00800           0
     23859 TIP3     3976     TP3      H2       HW       0.417000       1.00800           0
     23860 TIP3     3977     TP3      O        OW      -0.834000       16.0000           0
     23861 TIP3     3977     TP3      H1       HW       0.417000       1.00800           0
     23862 TIP3     3977     TP3      H2       HW       0.417000       1.00800           0
     23863 TIP3     3978     TP3      O        OW      -0.834000       16.0000           0
     23864 TIP3     3978     TP3      H1       HW       0.417000       1.00800           0
     23865 TIP3     3978     TP3      H2       HW       0.417000       1.00800           0
     23866 TIP3     3979     TP3      O        OW      -0.834000       16.0000           0
     23867 TIP3     3979     TP3      H1       HW       0.417000       1.00800           0
     23868 TIP3     3979     TP3      H2       HW       0.417000       1.00800           0
     23869 TIP3     3980     TP3      O        OW      -0.834000       16.0000           0
     23870 TIP3     3980     TP3      H1       HW       0.417000       1.00800           0
     23871 TIP3     3980     TP3      H2       HW       0.417000       1.00800           0
     23872 TIP3     3981     TP3      O        OW      -0.834000       16.0000           0
     23873 TIP3     3981     TP3      H1       HW       0.417000       1.00800           0
     23874 TIP3     3981     TP3      H2       HW       0.417000       1.00800           0
     23875 TIP3     3982     TP3      O        OW      -0.834000       16.0000           0
     23876 TIP3     3982     TP3      H1       HW       0.417000       1.00800           0
     23877 TIP3     3982     TP3      H2       HW       0.417000       1.00800           0
     23878 TIP3     3983     TP3      O        OW      -0.834000       16.0000           0
     23879 TIP3     3983     TP3      H1       HW       0.417000       1.00800           0
     23880 TIP3     3983     TP3      H2       HW       0.417000       1.00800           0
     23881 TIP3     3984     TP3      O        OW      -0.834000       16.0000           0
     23882 TIP3     3984     TP3      H1       HW       0.417000       1.00800           0
     23883 TIP3     3984     TP3      H2       HW       0.417000       1.00800           0
     23884 TIP3     3985     TP3      O        OW      -0.834000       16.0000           0
     23885 TIP3     3985     TP3      H1       HW       0.417000       1.00800           0
     23886 TIP3     3985     TP3      H2       HW       0.417000       1.00800           0
     23887 TIP3     3986     TP3      O        OW      -0.834000       16.0000           0
     23888 TIP3     3986     TP3      H1       HW       0.417000       1.00800           0
     23889 TIP3     3986     TP3      H2       HW       0.417000       1.00800           0
     23890 TIP3     3987     TP3      O        OW      -0.834000       16.0000           0
     23891 TIP3     3987     TP3      H1       HW       0.417000       1.00800           0
     23892 TIP3     3987     TP3      H2       HW       0.417000       1.00800           0
     23893 TIP3     3988     TP3      O        OW      -0.834000       16.0000           0
     23894 TIP3     3988     TP3      H1       HW       0.417000       1.00800           0
     23895 TIP3     3988     TP3      H2       HW       0.417000       1.00800           0
     23896 TIP3     3989     TP3      O        OW      -0.834000       16.0000           0
     23897 TIP3     3989     TP3      H1       HW       0.417000       1.00800           0
     23898 TIP3     3989     TP3      H2       HW       0.417000       1.00800           0
     23899 TIP3     3990     TP3      O        OW      -0.834000       16.0000           0
     23900 TIP3     3990     TP3      H1       HW       0.417000       1.00800           0
     23901 TIP3     3990     TP3      H2       HW       0.417000       1.00800           0
     23902 TIP3     3991     TP3      O        OW      -0.834000       16.0000           0
     23903 TIP3     3991     TP3      H1       HW       0.417000       1.00800           0
     23904 TIP3     3991     TP3      H2       HW       0.417000       1.00800           0
     23905 TIP3     3992     TP3      O        OW      -0.834000       16.0000           0
     23906 TIP3     3992     TP3      H1       HW       0.417000       1.00800           0
     23907 TIP3     3992     TP3      H2       HW       0.417000       1.00800           0
     23908 TIP3     3993     TP3      O        OW      -0.834000       16.0000           0
     23909 TIP3     3993     TP3      H1       HW       0.417000       1.00800           0
     23910 TIP3     3993     TP3      H2       HW       0.417000       1.00800           0
     23911 TIP3     3994     TP3      O        OW      -0.834000       16.0000           0
     23912 TIP3     3994     TP3      H1       HW       0.417000       1.00800           0
     23913 TIP3     3994     TP3      H2       HW       0.417000       1.00800           0
     23914 TIP3     3995     TP3      O        OW      -0.834000       16.0000           0
     23915 TIP3     3995     TP3      H1       HW       0.417000       1.00800           0
     23916 TIP3     3995     TP3      H2       HW       0.417000       1.00800           0
     23917 TIP3     3996     TP3      O        OW      -0.834000       16.0000           0
     23918 TIP3     3996     TP3      H1       HW       0.417000       1.00800           0
     23919 TIP3     3996     TP3      H2       HW       0.417000       1.00800           0
     23920 TIP3     3997     TP3      O        OW      -0.834000       16.0000           0
     23921 TIP3     3997     TP3      H1       HW       0.417000       1.00800           0
     23922 TIP3     3997     TP3      H2       HW       0.417000       1.00800           0
     23923 TIP3     3998     TP3      O        OW      -0.834000       16.0000           0
     23924 TIP3     3998     TP3      H1       HW       0.417000       1.00800           0
     23925 TIP3     3998     TP3      H2       HW       0.417000       1.00800           0
     23926 TIP3     3999     TP3      O        OW      -0.834000       16.0000           0
     23927 TIP3     3999     TP3      H1       HW       0.417000       1.00800           0
     23928 TIP3     3999     TP3      H2       HW       0.417000       1.00800           0
     23929 TIP3     4000     TP3      O        OW      -0.834000       16.0000           0
     23930 TIP3     4000     TP3      H1       HW       0.417000       1.00800           0
     23931 TIP3     4000     TP3      H2       HW       0.417000       1.00800           0
     23932 TIP3     4001     TP3      O        OW      -0.834000       16.0000           0
     23933 TIP3     4001     TP3      H1       HW       0.417000       1.00800           0
     23934 TIP3     4001     TP3      H2       HW       0.417000       1.00800           0
     23935 TIP3     4002     TP3      O        OW      -0.834000       16.0000           0
     23936 TIP3     4002     TP3      H1       HW       0.417000       1.00800           0
     23937 TIP3     4002     TP3      H2       HW       0.417000       1.00800           0
     23938 TIP3     4003     TP3      O        OW      -0.834000       16.0000           0
     23939 TIP3     4003     TP3      H1       HW       0.417000       1.00800           0
     23940 TIP3     4003     TP3      H2       HW       0.417000       1.00800           0
     23941 TIP3     4004     TP3      O        OW      -0.834000       16.0000           0
     23942 TIP3     4004     TP3      H1       HW       0.417000       1.00800           0
     23943 TIP3     4004     TP3      H2       HW       0.417000       1.00800           0
     23944 TIP3     4005     TP3      O        OW      -0.834000       16.0000           0
     23945 TIP3     4005     TP3      H1       HW       0.417000       1.00800           0
     23946 TIP3     4005     TP3      H2       HW       0.417000       1.00800           0
     23947 TIP3     4006     TP3      O        OW      -0.834000       16.0000           0
     23948 TIP3     4006     TP3      H1       HW       0.417000       1.00800           0
     23949 TIP3     4006     TP3      H2       HW       0.417000       1.00800           0
     23950 TIP3     4007     TP3      O        OW      -0.834000       16.0000           0
     23951 TIP3     4007     TP3      H1       HW       0.417000       1.00800           0
     23952 TIP3     4007     TP3      H2       HW       0.417000       1.00800           0
     23953 TIP3     4008     TP3      O        OW      -0.834000       16.0000           0
     23954 TIP3     4008     TP3      H1       HW       0.417000       1.00800           0
     23955 TIP3     4008     TP3      H2       HW       0.417000       1.00800           0
     23956 TIP3     4009     TP3      O        OW      -0.834000       16.0000           0
     23957 TIP3     4009     TP3      H1       HW       0.417000       1.00800           0
     23958 TIP3     4009     TP3      H2       HW       0.417000       1.00800           0
     23959 TIP3     4010     TP3      O        OW      -0.834000       16.0000           0
     23960 TIP3     4010     TP3      H1       HW       0.417000       1.00800           0
     23961 TIP3     4010     TP3      H2       HW       0.417000       1.00800           0
     23962 TIP3     4011     TP3      O        OW      -0.834000       16.0000           0
     23963 TIP3     4011     TP3      H1       HW       0.417000       1.00800           0
     23964 TIP3     4011     TP3      H2       HW       0.417000       1.00800           0
     23965 TIP3     4012     TP3      O        OW      -0.834000       16.0000           0
     23966 TIP3     4012     TP3      H1       HW       0.417000       1.00800           0
     23967 TIP3     4012     TP3      H2       HW       0.417000       1.00800           0
     23968 TIP3     4013     TP3      O        OW      -0.834000       16.0000           0
     23969 TIP3     4013     TP3      H1       HW       0.417000       1.00800           0
     23970 TIP3     4013     TP3      H2       HW       0.417000       1.00800           0
     23971 TIP3     4014     TP3      O        OW      -0.834000       16.0000           0
     23972 TIP3     4014     TP3      H1       HW       0.417000       1.00800           0
     23973 TIP3     4014     TP3      H2       HW       0.417000       1.00800           0
     23974 TIP3     4015     TP3      O        OW      -0.834000       16.0000           0
     23975 TIP3     4015     TP3      H1       HW       0.417000       1.00800           0
     23976 TIP3     4015     TP3      H2       HW       0.417000       1.00800           0
     23977 TIP3     4016     TP3      O        OW      -0.834000       16.0000           0
     23978 TIP3     4016     TP3      H1       HW       0.417000       1.00800           0
     23979 TIP3     4016     TP3      H2       HW       0.417000       1.00800           0
     23980 TIP3     4017     TP3      O        OW      -0.834000       16.0000           0
     23981 TIP3     4017     TP3      H1       HW       0.417000       1.00800           0
     23982 TIP3     4017     TP3      H2       HW       0.417000       1.00800           0
     23983 TIP3     4018     TP3      O        OW      -0.834000       16.0000           0
     23984 TIP3     4018     TP3      H1       HW       0.417000       1.00800           0
     23985 TIP3     4018     TP3      H2       HW       0.417000       1.00800           0
     23986 TIP3     4019     TP3      O        OW      -0.834000       16.0000           0
     23987 TIP3     4019     TP3      H1       HW       0.417000       1.00800           0
     23988 TIP3     4019     TP3      H2       HW       0.417000       1.00800           0
     23989 TIP3     4020     TP3      O        OW      -0.834000       16.0000           0
     23990 TIP3     4020     TP3      H1       HW       0.417000       1.00800           0
     23991 TIP3     4020     TP3      H2       HW       0.417000       1.00800           0
     23992 TIP3     4021     TP3      O        OW      -0.834000       16.0000           0
     23993 TIP3     4021     TP3      H1       HW       0.417000       1.00800           0
     23994 TIP3     4021     TP3      H2       HW       0.417000       1.00800           0
     23995 TIP3     4022     TP3      O        OW      -0.834000       16.0000           0
     23996 TIP3     4022     TP3      H1       HW       0.417000       1.00800           0
     23997 TIP3     4022     TP3      H2       HW       0.417000       1.00800           0
     23998 TIP3     4023     TP3      O        OW      -0.834000       16.0000           0
     23999 TIP3     4023     TP3      H1       HW       0.417000       1.00800           0
     24000 TIP3     4023     TP3      H2       HW       0.417000       1.00800           0
     24001 TIP3     4024     TP3      O        OW      -0.834000       16.0000           0
     24002 TIP3     4024     TP3      H1       HW       0.417000       1.00800           0
     24003 TIP3     4024     TP3      H2       HW       0.417000       1.00800           0
     24004 TIP3     4025     TP3      O        OW      -0.834000       16.0000           0
     24005 TIP3     4025     TP3      H1       HW       0.417000       1.00800           0
     24006 TIP3     4025     TP3      H2       HW       0.417000       1.00800           0
     24007 TIP3     4026     TP3      O        OW      -0.834000       16.0000           0
     24008 TIP3     4026     TP3      H1       HW       0.417000       1.00800           0
     24009 TIP3     4026     TP3      H2       HW       0.417000       1.00800           0
     24010 TIP3     4027     TP3      O        OW      -0.834000       16.0000           0
     24011 TIP3     4027     TP3      H1       HW       0.417000       1.00800           0
     24012 TIP3     4027     TP3      H2       HW       0.417000       1.00800           0
     24013 TIP3     4028     TP3      O        OW      -0.834000       16.0000           0
     24014 TIP3     4028     TP3      H1       HW       0.417000       1.00800           0
     24015 TIP3     4028     TP3      H2       HW       0.417000       1.00800           0
     24016 TIP3     4029     TP3      O        OW      -0.834000       16.0000           0
     24017 TIP3     4029     TP3      H1       HW       0.417000       1.00800           0
     24018 TIP3     4029     TP3      H2       HW       0.417000       1.00800           0
     24019 TIP3     4030     TP3      O        OW      -0.834000       16.0000           0
     24020 TIP3     4030     TP3      H1       HW       0.417000       1.00800           0
     24021 TIP3     4030     TP3      H2       HW       0.417000       1.00800           0
     24022 TIP3     4031     TP3      O        OW      -0.834000       16.0000           0
     24023 TIP3     4031     TP3      H1       HW       0.417000       1.00800           0
     24024 TIP3     4031     TP3      H2       HW       0.417000       1.00800           0
     24025 TIP3     4032     TP3      O        OW      -0.834000       16.0000           0
     24026 TIP3     4032     TP3      H1       HW       0.417000       1.00800           0
     24027 TIP3     4032     TP3      H2       HW       0.417000       1.00800           0
     24028 TIP3     4033     TP3      O        OW      -0.834000       16.0000           0
     24029 TIP3     4033     TP3      H1       HW       0.417000       1.00800           0
     24030 TIP3     4033     TP3      H2       HW       0.417000       1.00800           0
     24031 TIP3     4034     TP3      O        OW      -0.834000       16.0000           0
     24032 TIP3     4034     TP3      H1       HW       0.417000       1.00800           0
     24033 TIP3     4034     TP3      H2       HW       0.417000       1.00800           0
     24034 TIP3     4035     TP3      O        OW      -0.834000       16.0000           0
     24035 TIP3     4035     TP3      H1       HW       0.417000       1.00800           0
     24036 TIP3     4035     TP3      H2       HW       0.417000       1.00800           0
     24037 TIP3     4036     TP3      O        OW      -0.834000       16.0000           0
     24038 TIP3     4036     TP3      H1       HW       0.417000       1.00800           0
     24039 TIP3     4036     TP3      H2       HW       0.417000       1.00800           0
     24040 TIP3     4037     TP3      O        OW      -0.834000       16.0000           0
     24041 TIP3     4037     TP3      H1       HW       0.417000       1.00800           0
     24042 TIP3     4037     TP3      H2       HW       0.417000       1.00800           0
     24043 TIP3     4038     TP3      O        OW      -0.834000       16.0000           0
     24044 TIP3     4038     TP3      H1       HW       0.417000       1.00800           0
     24045 TIP3     4038     TP3      H2       HW       0.417000       1.00800           0
     24046 TIP3     4039     TP3      O        OW      -0.834000       16.0000           0
     24047 TIP3     4039     TP3      H1       HW       0.417000       1.00800           0
     24048 TIP3     4039     TP3      H2       HW       0.417000       1.00800           0
     24049 TIP3     4040     TP3      O        OW      -0.834000       16.0000           0
     24050 TIP3     4040     TP3      H1       HW       0.417000       1.00800           0
     24051 TIP3     4040     TP3      H2       HW       0.417000       1.00800           0
     24052 TIP3     4041     TP3      O        OW      -0.834000       16.0000           0
     24053 TIP3     4041     TP3      H1       HW       0.417000       1.00800           0
     24054 TIP3     4041     TP3      H2       HW       0.417000       1.00800           0
     24055 TIP3     4042     TP3      O        OW      -0.834000       16.0000           0
     24056 TIP3     4042     TP3      H1       HW       0.417000       1.00800           0
     24057 TIP3     4042     TP3      H2       HW       0.417000       1.00800           0
     24058 TIP3     4043     TP3      O        OW      -0.834000       16.0000           0
     24059 TIP3     4043     TP3      H1       HW       0.417000       1.00800           0
     24060 TIP3     4043     TP3      H2       HW       0.417000       1.00800           0
     24061 TIP3     4044     TP3      O        OW      -0.834000       16.0000           0
     24062 TIP3     4044     TP3      H1       HW       0.417000       1.00800           0
     24063 TIP3     4044     TP3      H2       HW       0.417000       1.00800           0
     24064 TIP3     4045     TP3      O        OW      -0.834000       16.0000           0
     24065 TIP3     4045     TP3      H1       HW       0.417000       1.00800           0
     24066 TIP3     4045     TP3      H2       HW       0.417000       1.00800           0
     24067 TIP3     4046     TP3      O        OW      -0.834000       16.0000           0
     24068 TIP3     4046     TP3      H1       HW       0.417000       1.00800           0
     24069 TIP3     4046     TP3      H2       HW       0.417000       1.00800           0
     24070 TIP3     4047     TP3      O        OW      -0.834000       16.0000           0
     24071 TIP3     4047     TP3      H1       HW       0.417000       1.00800           0
     24072 TIP3     4047     TP3      H2       HW       0.417000       1.00800           0
     24073 TIP3     4048     TP3      O        OW      -0.834000       16.0000           0
     24074 TIP3     4048     TP3      H1       HW       0.417000       1.00800           0
     24075 TIP3     4048     TP3      H2       HW       0.417000       1.00800           0
     24076 TIP3     4049     TP3      O        OW      -0.834000       16.0000           0
     24077 TIP3     4049     TP3      H1       HW       0.417000       1.00800           0
     24078 TIP3     4049     TP3      H2       HW       0.417000       1.00800           0
     24079 TIP3     4050     TP3      O        OW      -0.834000       16.0000           0
     24080 TIP3     4050     TP3      H1       HW       0.417000       1.00800           0
     24081 TIP3     4050     TP3      H2       HW       0.417000       1.00800           0
     24082 TIP3     4051     TP3      O        OW      -0.834000       16.0000           0
     24083 TIP3     4051     TP3      H1       HW       0.417000       1.00800           0
     24084 TIP3     4051     TP3      H2       HW       0.417000       1.00800           0
     24085 TIP3     4052     TP3      O        OW      -0.834000       16.0000           0
     24086 TIP3     4052     TP3      H1       HW       0.417000       1.00800           0
     24087 TIP3     4052     TP3      H2       HW       0.417000       1.00800           0
     24088 TIP3     4053     TP3      O        OW      -0.834000       16.0000           0
     24089 TIP3     4053     TP3      H1       HW       0.417000       1.00800           0
     24090 TIP3     4053     TP3      H2       HW       0.417000       1.00800           0
     24091 TIP3     4054     TP3      O        OW      -0.834000       16.0000           0
     24092 TIP3     4054     TP3      H1       HW       0.417000       1.00800           0
     24093 TIP3     4054     TP3      H2       HW       0.417000       1.00800           0
     24094 TIP3     4055     TP3      O        OW      -0.834000       16.0000           0
     24095 TIP3     4055     TP3      H1       HW       0.417000       1.00800           0
     24096 TIP3     4055     TP3      H2       HW       0.417000       1.00800           0
     24097 TIP3     4056     TP3      O        OW      -0.834000       16.0000           0
     24098 TIP3     4056     TP3      H1       HW       0.417000       1.00800           0
     24099 TIP3     4056     TP3      H2       HW       0.417000       1.00800           0
     24100 TIP3     4057     TP3      O        OW      -0.834000       16.0000           0
     24101 TIP3     4057     TP3      H1       HW       0.417000       1.00800           0
     24102 TIP3     4057     TP3      H2       HW       0.417000       1.00800           0
     24103 TIP3     4058     TP3      O        OW      -0.834000       16.0000           0
     24104 TIP3     4058     TP3      H1       HW       0.417000       1.00800           0
     24105 TIP3     4058     TP3      H2       HW       0.417000       1.00800           0
     24106 TIP3     4059     TP3      O        OW      -0.834000       16.0000           0
     24107 TIP3     4059     TP3      H1       HW       0.417000       1.00800           0
     24108 TIP3     4059     TP3      H2       HW       0.417000       1.00800           0
     24109 TIP3     4060     TP3      O        OW      -0.834000       16.0000           0
     24110 TIP3     4060     TP3      H1       HW       0.417000       1.00800           0
     24111 TIP3     4060     TP3      H2       HW       0.417000       1.00800           0
     24112 TIP3     4061     TP3      O        OW      -0.834000       16.0000           0
     24113 TIP3     4061     TP3      H1       HW       0.417000       1.00800           0
     24114 TIP3     4061     TP3      H2       HW       0.417000       1.00800           0
     24115 TIP3     4062     TP3      O        OW      -0.834000       16.0000           0
     24116 TIP3     4062     TP3      H1       HW       0.417000       1.00800           0
     24117 TIP3     4062     TP3      H2       HW       0.417000       1.00800           0
     24118 TIP3     4063     TP3      O        OW      -0.834000       16.0000           0
     24119 TIP3     4063     TP3      H1       HW       0.417000       1.00800           0
     24120 TIP3     4063     TP3      H2       HW       0.417000       1.00800           0
     24121 TIP3     4064     TP3      O        OW      -0.834000       16.0000           0
     24122 TIP3     4064     TP3      H1       HW       0.417000       1.00800           0
     24123 TIP3     4064     TP3      H2       HW       0.417000       1.00800           0
     24124 TIP3     4065     TP3      O        OW      -0.834000       16.0000           0
     24125 TIP3     4065     TP3      H1       HW       0.417000       1.00800           0
     24126 TIP3     4065     TP3      H2       HW       0.417000       1.00800           0
     24127 TIP3     4066     TP3      O        OW      -0.834000       16.0000           0
     24128 TIP3     4066     TP3      H1       HW       0.417000       1.00800           0
     24129 TIP3     4066     TP3      H2       HW       0.417000       1.00800           0
     24130 TIP3     4067     TP3      O        OW      -0.834000       16.0000           0
     24131 TIP3     4067     TP3      H1       HW       0.417000       1.00800           0
     24132 TIP3     4067     TP3      H2       HW       0.417000       1.00800           0
     24133 TIP3     4068     TP3      O        OW      -0.834000       16.0000           0
     24134 TIP3     4068     TP3      H1       HW       0.417000       1.00800           0
     24135 TIP3     4068     TP3      H2       HW       0.417000       1.00800           0
     24136 TIP3     4069     TP3      O        OW      -0.834000       16.0000           0
     24137 TIP3     4069     TP3      H1       HW       0.417000       1.00800           0
     24138 TIP3     4069     TP3      H2       HW       0.417000       1.00800           0
     24139 TIP3     4070     TP3      O        OW      -0.834000       16.0000           0
     24140 TIP3     4070     TP3      H1       HW       0.417000       1.00800           0
     24141 TIP3     4070     TP3      H2       HW       0.417000       1.00800           0
     24142 TIP3     4071     TP3      O        OW      -0.834000       16.0000           0
     24143 TIP3     4071     TP3      H1       HW       0.417000       1.00800           0
     24144 TIP3     4071     TP3      H2       HW       0.417000       1.00800           0
     24145 TIP3     4072     TP3      O        OW      -0.834000       16.0000           0
     24146 TIP3     4072     TP3      H1       HW       0.417000       1.00800           0
     24147 TIP3     4072     TP3      H2       HW       0.417000       1.00800           0
     24148 TIP3     4073     TP3      O        OW      -0.834000       16.0000           0
     24149 TIP3     4073     TP3      H1       HW       0.417000       1.00800           0
     24150 TIP3     4073     TP3      H2       HW       0.417000       1.00800           0
     24151 TIP3     4074     TP3      O        OW      -0.834000       16.0000           0
     24152 TIP3     4074     TP3      H1       HW       0.417000       1.00800           0
     24153 TIP3     4074     TP3      H2       HW       0.417000       1.00800           0
     24154 TIP3     4075     TP3      O        OW      -0.834000       16.0000           0
     24155 TIP3     4075     TP3      H1       HW       0.417000       1.00800           0
     24156 TIP3     4075     TP3      H2       HW       0.417000       1.00800           0
     24157 TIP3     4076     TP3      O        OW      -0.834000       16.0000           0
     24158 TIP3     4076     TP3      H1       HW       0.417000       1.00800           0
     24159 TIP3     4076     TP3      H2       HW       0.417000       1.00800           0
     24160 TIP3     4077     TP3      O        OW      -0.834000       16.0000           0
     24161 TIP3     4077     TP3      H1       HW       0.417000       1.00800           0
     24162 TIP3     4077     TP3      H2       HW       0.417000       1.00800           0
     24163 TIP3     4078     TP3      O        OW      -0.834000       16.0000           0
     24164 TIP3     4078     TP3      H1       HW       0.417000       1.00800           0
     24165 TIP3     4078     TP3      H2       HW       0.417000       1.00800           0
     24166 TIP3     4079     TP3      O        OW      -0.834000       16.0000           0
     24167 TIP3     4079     TP3      H1       HW       0.417000       1.00800           0
     24168 TIP3     4079     TP3      H2       HW       0.417000       1.00800           0
     24169 TIP3     4080     TP3      O        OW      -0.834000       16.0000           0
     24170 TIP3     4080     TP3      H1       HW       0.417000       1.00800           0
     24171 TIP3     4080     TP3      H2       HW       0.417000       1.00800           0
     24172 TIP3     4081     TP3      O        OW      -0.834000       16.0000           0
     24173 TIP3     4081     TP3      H1       HW       0.417000       1.00800           0
     24174 TIP3     4081     TP3      H2       HW       0.417000       1.00800           0
     24175 TIP3     4082     TP3      O        OW      -0.834000       16.0000           0
     24176 TIP3     4082     TP3      H1       HW       0.417000       1.00800           0
     24177 TIP3     4082     TP3      H2       HW       0.417000       1.00800           0
     24178 TIP3     4083     TP3      O        OW      -0.834000       16.0000           0
     24179 TIP3     4083     TP3      H1       HW       0.417000       1.00800           0
     24180 TIP3     4083     TP3      H2       HW       0.417000       1.00800           0
     24181 TIP3     4084     TP3      O        OW      -0.834000       16.0000           0
     24182 TIP3     4084     TP3      H1       HW       0.417000       1.00800           0
     24183 TIP3     4084     TP3      H2       HW       0.417000       1.00800           0
     24184 TIP3     4085     TP3      O        OW      -0.834000       16.0000           0
     24185 TIP3     4085     TP3      H1       HW       0.417000       1.00800           0
     24186 TIP3     4085     TP3      H2       HW       0.417000       1.00800           0
     24187 TIP3     4086     TP3      O        OW      -0.834000       16.0000           0
     24188 TIP3     4086     TP3      H1       HW       0.417000       1.00800           0
     24189 TIP3     4086     TP3      H2       HW       0.417000       1.00800           0
     24190 TIP3     4087     TP3      O        OW      -0.834000       16.0000           0
     24191 TIP3     4087     TP3      H1       HW       0.417000       1.00800           0
     24192 TIP3     4087     TP3      H2       HW       0.417000       1.00800           0
     24193 TIP3     4088     TP3      O        OW      -0.834000       16.0000           0
     24194 TIP3     4088     TP3      H1       HW       0.417000       1.00800           0
     24195 TIP3     4088     TP3      H2       HW       0.417000       1.00800           0
     24196 TIP3     4089     TP3      O        OW      -0.834000       16.0000           0
     24197 TIP3     4089     TP3      H1       HW       0.417000       1.00800           0
     24198 TIP3     4089     TP3      H2       HW       0.417000       1.00800           0
     24199 TIP3     4090     TP3      O        OW      -0.834000       16.0000           0
     24200 TIP3     4090     TP3      H1       HW       0.417000       1.00800           0
     24201 TIP3     4090     TP3      H2       HW       0.417000       1.00800           0
     24202 TIP3     4091     TP3      O        OW      -0.834000       16.0000           0
     24203 TIP3     4091     TP3      H1       HW       0.417000       1.00800           0
     24204 TIP3     4091     TP3      H2       HW       0.417000       1.00800           0
     24205 TIP3     4092     TP3      O        OW      -0.834000       16.0000           0
     24206 TIP3     4092     TP3      H1       HW       0.417000       1.00800           0
     24207 TIP3     4092     TP3      H2       HW       0.417000       1.00800           0
     24208 TIP3     4093     TP3      O        OW      -0.834000       16.0000           0
     24209 TIP3     4093     TP3      H1       HW       0.417000       1.00800           0
     24210 TIP3     4093     TP3      H2       HW       0.417000       1.00800           0
     24211 TIP3     4094     TP3      O        OW      -0.834000       16.0000           0
     24212 TIP3     4094     TP3      H1       HW       0.417000       1.00800           0
     24213 TIP3     4094     TP3      H2       HW       0.417000       1.00800           0
     24214 TIP3     4095     TP3      O        OW      -0.834000       16.0000           0
     24215 TIP3     4095     TP3      H1       HW       0.417000       1.00800           0
     24216 TIP3     4095     TP3      H2       HW       0.417000       1.00800           0
     24217 TIP3     4096     TP3      O        OW      -0.834000       16.0000           0
     24218 TIP3     4096     TP3      H1       HW       0.417000       1.00800           0
     24219 TIP3     4096     TP3      H2       HW       0.417000       1.00800           0
     24220 TIP3     4097     TP3      O        OW      -0.834000       16.0000           0
     24221 TIP3     4097     TP3      H1       HW       0.417000       1.00800           0
     24222 TIP3     4097     TP3      H2       HW       0.417000       1.00800           0
     24223 TIP3     4098     TP3      O        OW      -0.834000       16.0000           0
     24224 TIP3     4098     TP3      H1       HW       0.417000       1.00800           0
     24225 TIP3     4098     TP3      H2       HW       0.417000       1.00800           0
     24226 TIP3     4099     TP3      O        OW      -0.834000       16.0000           0
     24227 TIP3     4099     TP3      H1       HW       0.417000       1.00800           0
     24228 TIP3     4099     TP3      H2       HW       0.417000       1.00800           0
     24229 TIP3     4100     TP3      O        OW      -0.834000       16.0000           0
     24230 TIP3     4100     TP3      H1       HW       0.417000       1.00800           0
     24231 TIP3     4100     TP3      H2       HW       0.417000       1.00800           0
     24232 TIP3     4101     TP3      O        OW      -0.834000       16.0000           0
     24233 TIP3     4101     TP3      H1       HW       0.417000       1.00800           0
     24234 TIP3     4101     TP3      H2       HW       0.417000       1.00800           0
     24235 TIP3     4102     TP3      O        OW      -0.834000       16.0000           0
     24236 TIP3     4102     TP3      H1       HW       0.417000       1.00800           0
     24237 TIP3     4102     TP3      H2       HW       0.417000       1.00800           0
     24238 TIP3     4103     TP3      O        OW      -0.834000       16.0000           0
     24239 TIP3     4103     TP3      H1       HW       0.417000       1.00800           0
     24240 TIP3     4103     TP3      H2       HW       0.417000       1.00800           0
     24241 TIP3     4104     TP3      O        OW      -0.834000       16.0000           0
     24242 TIP3     4104     TP3      H1       HW       0.417000       1.00800           0
     24243 TIP3     4104     TP3      H2       HW       0.417000       1.00800           0
     24244 TIP3     4105     TP3      O        OW      -0.834000       16.0000           0
     24245 TIP3     4105     TP3      H1       HW       0.417000       1.00800           0
     24246 TIP3     4105     TP3      H2       HW       0.417000       1.00800           0
     24247 TIP3     4106     TP3      O        OW      -0.834000       16.0000           0
     24248 TIP3     4106     TP3      H1       HW       0.417000       1.00800           0
     24249 TIP3     4106     TP3      H2       HW       0.417000       1.00800           0
     24250 TIP3     4107     TP3      O        OW      -0.834000       16.0000           0
     24251 TIP3     4107     TP3      H1       HW       0.417000       1.00800           0
     24252 TIP3     4107     TP3      H2       HW       0.417000       1.00800           0
     24253 TIP3     4108     TP3      O        OW      -0.834000       16.0000           0
     24254 TIP3     4108     TP3      H1       HW       0.417000       1.00800           0
     24255 TIP3     4108     TP3      H2       HW       0.417000       1.00800           0
     24256 TIP3     4109     TP3      O        OW      -0.834000       16.0000           0
     24257 TIP3     4109     TP3      H1       HW       0.417000       1.00800           0
     24258 TIP3     4109     TP3      H2       HW       0.417000       1.00800           0
     24259 TIP3     4110     TP3      O        OW      -0.834000       16.0000           0
     24260 TIP3     4110     TP3      H1       HW       0.417000       1.00800           0
     24261 TIP3     4110     TP3      H2       HW       0.417000       1.00800           0
     24262 TIP3     4111     TP3      O        OW      -0.834000       16.0000           0
     24263 TIP3     4111     TP3      H1       HW       0.417000       1.00800           0
     24264 TIP3     4111     TP3      H2       HW       0.417000       1.00800           0
     24265 TIP3     4112     TP3      O        OW      -0.834000       16.0000           0
     24266 TIP3     4112     TP3      H1       HW       0.417000       1.00800           0
     24267 TIP3     4112     TP3      H2       HW       0.417000       1.00800           0
     24268 TIP3     4113     TP3      O        OW      -0.834000       16.0000           0
     24269 TIP3     4113     TP3      H1       HW       0.417000       1.00800           0
     24270 TIP3     4113     TP3      H2       HW       0.417000       1.00800           0
     24271 TIP3     4114     TP3      O        OW      -0.834000       16.0000           0
     24272 TIP3     4114     TP3      H1       HW       0.417000       1.00800           0
     24273 TIP3     4114     TP3      H2       HW       0.417000       1.00800           0
     24274 TIP3     4115     TP3      O        OW      -0.834000       16.0000           0
     24275 TIP3     4115     TP3      H1       HW       0.417000       1.00800           0
     24276 TIP3     4115     TP3      H2       HW       0.417000       1.00800           0
     24277 TIP3     4116     TP3      O        OW      -0.834000       16.0000           0
     24278 TIP3     4116     TP3      H1       HW       0.417000       1.00800           0
     24279 TIP3     4116     TP3      H2       HW       0.417000       1.00800           0
     24280 TIP3     4117     TP3      O        OW      -0.834000       16.0000           0
     24281 TIP3     4117     TP3      H1       HW       0.417000       1.00800           0
     24282 TIP3     4117     TP3      H2       HW       0.417000       1.00800           0
     24283 TIP3     4118     TP3      O        OW      -0.834000       16.0000           0
     24284 TIP3     4118     TP3      H1       HW       0.417000       1.00800           0
     24285 TIP3     4118     TP3      H2       HW       0.417000       1.00800           0
     24286 TIP3     4119     TP3      O        OW      -0.834000       16.0000           0
     24287 TIP3     4119     TP3      H1       HW       0.417000       1.00800           0
     24288 TIP3     4119     TP3      H2       HW       0.417000       1.00800           0
     24289 TIP3     4120     TP3      O        OW      -0.834000       16.0000           0
     24290 TIP3     4120     TP3      H1       HW       0.417000       1.00800           0
     24291 TIP3     4120     TP3      H2       HW       0.417000       1.00800           0
     24292 TIP3     4121     TP3      O        OW      -0.834000       16.0000           0
     24293 TIP3     4121     TP3      H1       HW       0.417000       1.00800           0
     24294 TIP3     4121     TP3      H2       HW       0.417000       1.00800           0
     24295 TIP3     4122     TP3      O        OW      -0.834000       16.0000           0
     24296 TIP3     4122     TP3      H1       HW       0.417000       1.00800           0
     24297 TIP3     4122     TP3      H2       HW       0.417000       1.00800           0
     24298 TIP3     4123     TP3      O        OW      -0.834000       16.0000           0
     24299 TIP3     4123     TP3      H1       HW       0.417000       1.00800           0
     24300 TIP3     4123     TP3      H2       HW       0.417000       1.00800           0
     24301 TIP3     4124     TP3      O        OW      -0.834000       16.0000           0
     24302 TIP3     4124     TP3      H1       HW       0.417000       1.00800           0
     24303 TIP3     4124     TP3      H2       HW       0.417000       1.00800           0
     24304 TIP3     4125     TP3      O        OW      -0.834000       16.0000           0
     24305 TIP3     4125     TP3      H1       HW       0.417000       1.00800           0
     24306 TIP3     4125     TP3      H2       HW       0.417000       1.00800           0
     24307 TIP3     4126     TP3      O        OW      -0.834000       16.0000           0
     24308 TIP3     4126     TP3      H1       HW       0.417000       1.00800           0
     24309 TIP3     4126     TP3      H2       HW       0.417000       1.00800           0
     24310 TIP3     4127     TP3      O        OW      -0.834000       16.0000           0
     24311 TIP3     4127     TP3      H1       HW       0.417000       1.00800           0
     24312 TIP3     4127     TP3      H2       HW       0.417000       1.00800           0
     24313 TIP3     4128     TP3      O        OW      -0.834000       16.0000           0
     24314 TIP3     4128     TP3      H1       HW       0.417000       1.00800           0
     24315 TIP3     4128     TP3      H2       HW       0.417000       1.00800           0
     24316 TIP3     4129     TP3      O        OW      -0.834000       16.0000           0
     24317 TIP3     4129     TP3      H1       HW       0.417000       1.00800           0
     24318 TIP3     4129     TP3      H2       HW       0.417000       1.00800           0
     24319 TIP3     4130     TP3      O        OW      -0.834000       16.0000           0
     24320 TIP3     4130     TP3      H1       HW       0.417000       1.00800           0
     24321 TIP3     4130     TP3      H2       HW       0.417000       1.00800           0
     24322 TIP3     4131     TP3      O        OW      -0.834000       16.0000           0
     24323 TIP3     4131     TP3      H1       HW       0.417000       1.00800           0
     24324 TIP3     4131     TP3      H2       HW       0.417000       1.00800           0
     24325 TIP3     4132     TP3      O        OW      -0.834000       16.0000           0
     24326 TIP3     4132     TP3      H1       HW       0.417000       1.00800           0
     24327 TIP3     4132     TP3      H2       HW       0.417000       1.00800           0
     24328 TIP3     4133     TP3      O        OW      -0.834000       16.0000           0
     24329 TIP3     4133     TP3      H1       HW       0.417000       1.00800           0
     24330 TIP3     4133     TP3      H2       HW       0.417000       1.00800           0
     24331 TIP3     4134     TP3      O        OW      -0.834000       16.0000           0
     24332 TIP3     4134     TP3      H1       HW       0.417000       1.00800           0
     24333 TIP3     4134     TP3      H2       HW       0.417000       1.00800           0
     24334 TIP3     4135     TP3      O        OW      -0.834000       16.0000           0
     24335 TIP3     4135     TP3      H1       HW       0.417000       1.00800           0
     24336 TIP3     4135     TP3      H2       HW       0.417000       1.00800           0
     24337 TIP3     4136     TP3      O        OW      -0.834000       16.0000           0
     24338 TIP3     4136     TP3      H1       HW       0.417000       1.00800           0
     24339 TIP3     4136     TP3      H2       HW       0.417000       1.00800           0
     24340 TIP3     4137     TP3      O        OW      -0.834000       16.0000           0
     24341 TIP3     4137     TP3      H1       HW       0.417000       1.00800           0
     24342 TIP3     4137     TP3      H2       HW       0.417000       1.00800           0
     24343 TIP3     4138     TP3      O        OW      -0.834000       16.0000           0
     24344 TIP3     4138     TP3      H1       HW       0.417000       1.00800           0
     24345 TIP3     4138     TP3      H2       HW       0.417000       1.00800           0
     24346 TIP3     4139     TP3      O        OW      -0.834000       16.0000           0
     24347 TIP3     4139     TP3      H1       HW       0.417000       1.00800           0
     24348 TIP3     4139     TP3      H2       HW       0.417000       1.00800           0
     24349 TIP3     4140     TP3      O        OW      -0.834000       16.0000           0
     24350 TIP3     4140     TP3      H1       HW       0.417000       1.00800           0
     24351 TIP3     4140     TP3      H2       HW       0.417000       1.00800           0
     24352 TIP3     4141     TP3      O        OW      -0.834000       16.0000           0
     24353 TIP3     4141     TP3      H1       HW       0.417000       1.00800           0
     24354 TIP3     4141     TP3      H2       HW       0.417000       1.00800           0
     24355 TIP3     4142     TP3      O        OW      -0.834000       16.0000           0
     24356 TIP3     4142     TP3      H1       HW       0.417000       1.00800           0
     24357 TIP3     4142     TP3      H2       HW       0.417000       1.00800           0
     24358 TIP3     4143     TP3      O        OW      -0.834000       16.0000           0
     24359 TIP3     4143     TP3      H1       HW       0.417000       1.00800           0
     24360 TIP3     4143     TP3      H2       HW       0.417000       1.00800           0
     24361 TIP3     4144     TP3      O        OW      -0.834000       16.0000           0
     24362 TIP3     4144     TP3      H1       HW       0.417000       1.00800           0
     24363 TIP3     4144     TP3      H2       HW       0.417000       1.00800           0
     24364 TIP3     4145     TP3      O        OW      -0.834000       16.0000           0
     24365 TIP3     4145     TP3      H1       HW       0.417000       1.00800           0
     24366 TIP3     4145     TP3      H2       HW       0.417000       1.00800           0
     24367 TIP3     4146     TP3      O        OW      -0.834000       16.0000           0
     24368 TIP3     4146     TP3      H1       HW       0.417000       1.00800           0
     24369 TIP3     4146     TP3      H2       HW       0.417000       1.00800           0
     24370 TIP3     4147     TP3      O        OW      -0.834000       16.0000           0
     24371 TIP3     4147     TP3      H1       HW       0.417000       1.00800           0
     24372 TIP3     4147     TP3      H2       HW       0.417000       1.00800           0
     24373 TIP3     4148     TP3      O        OW      -0.834000       16.0000           0
     24374 TIP3     4148     TP3      H1       HW       0.417000       1.00800           0
     24375 TIP3     4148     TP3      H2       HW       0.417000       1.00800           0
     24376 TIP3     4149     TP3      O        OW      -0.834000       16.0000           0
     24377 TIP3     4149     TP3      H1       HW       0.417000       1.00800           0
     24378 TIP3     4149     TP3      H2       HW       0.417000       1.00800           0
     24379 TIP3     4150     TP3      O        OW      -0.834000       16.0000           0
     24380 TIP3     4150     TP3      H1       HW       0.417000       1.00800           0
     24381 TIP3     4150     TP3      H2       HW       0.417000       1.00800           0
     24382 TIP3     4151     TP3      O        OW      -0.834000       16.0000           0
     24383 TIP3     4151     TP3      H1       HW       0.417000       1.00800           0
     24384 TIP3     4151     TP3      H2       HW       0.417000       1.00800           0
     24385 TIP3     4152     TP3      O        OW      -0.834000       16.0000           0
     24386 TIP3     4152     TP3      H1       HW       0.417000       1.00800           0
     24387 TIP3     4152     TP3      H2       HW       0.417000       1.00800           0
     24388 TIP3     4153     TP3      O        OW      -0.834000       16.0000           0
     24389 TIP3     4153     TP3      H1       HW       0.417000       1.00800           0
     24390 TIP3     4153     TP3      H2       HW       0.417000       1.00800           0
     24391 TIP3     4154     TP3      O        OW      -0.834000       16.0000           0
     24392 TIP3     4154     TP3      H1       HW       0.417000       1.00800           0
     24393 TIP3     4154     TP3      H2       HW       0.417000       1.00800           0
     24394 TIP3     4155     TP3      O        OW      -0.834000       16.0000           0
     24395 TIP3     4155     TP3      H1       HW       0.417000       1.00800           0
     24396 TIP3     4155     TP3      H2       HW       0.417000       1.00800           0
     24397 TIP3     4156     TP3      O        OW      -0.834000       16.0000           0
     24398 TIP3     4156     TP3      H1       HW       0.417000       1.00800           0
     24399 TIP3     4156     TP3      H2       HW       0.417000       1.00800           0
     24400 TIP3     4157     TP3      O        OW      -0.834000       16.0000           0
     24401 TIP3     4157     TP3      H1       HW       0.417000       1.00800           0
     24402 TIP3     4157     TP3      H2       HW       0.417000       1.00800           0
     24403 TIP3     4158     TP3      O        OW      -0.834000       16.0000           0
     24404 TIP3     4158     TP3      H1       HW       0.417000       1.00800           0
     24405 TIP3     4158     TP3      H2       HW       0.417000       1.00800           0
     24406 TIP3     4159     TP3      O        OW      -0.834000       16.0000           0
     24407 TIP3     4159     TP3      H1       HW       0.417000       1.00800           0
     24408 TIP3     4159     TP3      H2       HW       0.417000       1.00800           0
     24409 TIP3     4160     TP3      O        OW      -0.834000       16.0000           0
     24410 TIP3     4160     TP3      H1       HW       0.417000       1.00800           0
     24411 TIP3     4160     TP3      H2       HW       0.417000       1.00800           0
     24412 TIP3     4161     TP3      O        OW      -0.834000       16.0000           0
     24413 TIP3     4161     TP3      H1       HW       0.417000       1.00800           0
     24414 TIP3     4161     TP3      H2       HW       0.417000       1.00800           0
     24415 TIP3     4162     TP3      O        OW      -0.834000       16.0000           0
     24416 TIP3     4162     TP3      H1       HW       0.417000       1.00800           0
     24417 TIP3     4162     TP3      H2       HW       0.417000       1.00800           0
     24418 TIP3     4163     TP3      O        OW      -0.834000       16.0000           0
     24419 TIP3     4163     TP3      H1       HW       0.417000       1.00800           0
     24420 TIP3     4163     TP3      H2       HW       0.417000       1.00800           0
     24421 TIP3     4164     TP3      O        OW      -0.834000       16.0000           0
     24422 TIP3     4164     TP3      H1       HW       0.417000       1.00800           0
     24423 TIP3     4164     TP3      H2       HW       0.417000       1.00800           0
     24424 TIP3     4165     TP3      O        OW      -0.834000       16.0000           0
     24425 TIP3     4165     TP3      H1       HW       0.417000       1.00800           0
     24426 TIP3     4165     TP3      H2       HW       0.417000       1.00800           0
     24427 TIP3     4166     TP3      O        OW      -0.834000       16.0000           0
     24428 TIP3     4166     TP3      H1       HW       0.417000       1.00800           0
     24429 TIP3     4166     TP3      H2       HW       0.417000       1.00800           0
     24430 TIP3     4167     TP3      O        OW      -0.834000       16.0000           0
     24431 TIP3     4167     TP3      H1       HW       0.417000       1.00800           0
     24432 TIP3     4167     TP3      H2       HW       0.417000       1.00800           0
     24433 TIP3     4168     TP3      O        OW      -0.834000       16.0000           0
     24434 TIP3     4168     TP3      H1       HW       0.417000       1.00800           0
     24435 TIP3     4168     TP3      H2       HW       0.417000       1.00800           0
     24436 TIP3     4169     TP3      O        OW      -0.834000       16.0000           0
     24437 TIP3     4169     TP3      H1       HW       0.417000       1.00800           0
     24438 TIP3     4169     TP3      H2       HW       0.417000       1.00800           0
     24439 TIP3     4170     TP3      O        OW      -0.834000       16.0000           0
     24440 TIP3     4170     TP3      H1       HW       0.417000       1.00800           0
     24441 TIP3     4170     TP3      H2       HW       0.417000       1.00800           0
     24442 TIP3     4171     TP3      O        OW      -0.834000       16.0000           0
     24443 TIP3     4171     TP3      H1       HW       0.417000       1.00800           0
     24444 TIP3     4171     TP3      H2       HW       0.417000       1.00800           0
     24445 TIP3     4172     TP3      O        OW      -0.834000       16.0000           0
     24446 TIP3     4172     TP3      H1       HW       0.417000       1.00800           0
     24447 TIP3     4172     TP3      H2       HW       0.417000       1.00800           0
     24448 TIP3     4173     TP3      O        OW      -0.834000       16.0000           0
     24449 TIP3     4173     TP3      H1       HW       0.417000       1.00800           0
     24450 TIP3     4173     TP3      H2       HW       0.417000       1.00800           0
     24451 TIP3     4174     TP3      O        OW      -0.834000       16.0000           0
     24452 TIP3     4174     TP3      H1       HW       0.417000       1.00800           0
     24453 TIP3     4174     TP3      H2       HW       0.417000       1.00800           0
     24454 TIP3     4175     TP3      O        OW      -0.834000       16.0000           0
     24455 TIP3     4175     TP3      H1       HW       0.417000       1.00800           0
     24456 TIP3     4175     TP3      H2       HW       0.417000       1.00800           0
     24457 TIP3     4176     TP3      O        OW      -0.834000       16.0000           0
     24458 TIP3     4176     TP3      H1       HW       0.417000       1.00800           0
     24459 TIP3     4176     TP3      H2       HW       0.417000       1.00800           0
     24460 TIP3     4177     TP3      O        OW      -0.834000       16.0000           0
     24461 TIP3     4177     TP3      H1       HW       0.417000       1.00800           0
     24462 TIP3     4177     TP3      H2       HW       0.417000       1.00800           0
     24463 TIP3     4178     TP3      O        OW      -0.834000       16.0000           0
     24464 TIP3     4178     TP3      H1       HW       0.417000       1.00800           0
     24465 TIP3     4178     TP3      H2       HW       0.417000       1.00800           0
     24466 TIP3     4179     TP3      O        OW      -0.834000       16.0000           0
     24467 TIP3     4179     TP3      H1       HW       0.417000       1.00800           0
     24468 TIP3     4179     TP3      H2       HW       0.417000       1.00800           0
     24469 TIP3     4180     TP3      O        OW      -0.834000       16.0000           0
     24470 TIP3     4180     TP3      H1       HW       0.417000       1.00800           0
     24471 TIP3     4180     TP3      H2       HW       0.417000       1.00800           0
     24472 TIP3     4181     TP3      O        OW      -0.834000       16.0000           0
     24473 TIP3     4181     TP3      H1       HW       0.417000       1.00800           0
     24474 TIP3     4181     TP3      H2       HW       0.417000       1.00800           0
     24475 TIP3     4182     TP3      O        OW      -0.834000       16.0000           0
     24476 TIP3     4182     TP3      H1       HW       0.417000       1.00800           0
     24477 TIP3     4182     TP3      H2       HW       0.417000       1.00800           0
     24478 TIP3     4183     TP3      O        OW      -0.834000       16.0000           0
     24479 TIP3     4183     TP3      H1       HW       0.417000       1.00800           0
     24480 TIP3     4183     TP3      H2       HW       0.417000       1.00800           0
     24481 TIP3     4184     TP3      O        OW      -0.834000       16.0000           0
     24482 TIP3     4184     TP3      H1       HW       0.417000       1.00800           0
     24483 TIP3     4184     TP3      H2       HW       0.417000       1.00800           0
     24484 TIP3     4185     TP3      O        OW      -0.834000       16.0000           0
     24485 TIP3     4185     TP3      H1       HW       0.417000       1.00800           0
     24486 TIP3     4185     TP3      H2       HW       0.417000       1.00800           0
     24487 TIP3     4186     TP3      O        OW      -0.834000       16.0000           0
     24488 TIP3     4186     TP3      H1       HW       0.417000       1.00800           0
     24489 TIP3     4186     TP3      H2       HW       0.417000       1.00800           0
     24490 TIP3     4187     TP3      O        OW      -0.834000       16.0000           0
     24491 TIP3     4187     TP3      H1       HW       0.417000       1.00800           0
     24492 TIP3     4187     TP3      H2       HW       0.417000       1.00800           0
     24493 TIP3     4188     TP3      O        OW      -0.834000       16.0000           0
     24494 TIP3     4188     TP3      H1       HW       0.417000       1.00800           0
     24495 TIP3     4188     TP3      H2       HW       0.417000       1.00800           0
     24496 TIP3     4189     TP3      O        OW      -0.834000       16.0000           0
     24497 TIP3     4189     TP3      H1       HW       0.417000       1.00800           0
     24498 TIP3     4189     TP3      H2       HW       0.417000       1.00800           0
     24499 TIP3     4190     TP3      O        OW      -0.834000       16.0000           0
     24500 TIP3     4190     TP3      H1       HW       0.417000       1.00800           0
     24501 TIP3     4190     TP3      H2       HW       0.417000       1.00800           0
     24502 TIP3     4191     TP3      O        OW      -0.834000       16.0000           0
     24503 TIP3     4191     TP3      H1       HW       0.417000       1.00800           0
     24504 TIP3     4191     TP3      H2       HW       0.417000       1.00800           0
     24505 TIP3     4192     TP3      O        OW      -0.834000       16.0000           0
     24506 TIP3     4192     TP3      H1       HW       0.417000       1.00800           0
     24507 TIP3     4192     TP3      H2       HW       0.417000       1.00800           0
     24508 TIP3     4193     TP3      O        OW      -0.834000       16.0000           0
     24509 TIP3     4193     TP3      H1       HW       0.417000       1.00800           0
     24510 TIP3     4193     TP3      H2       HW       0.417000       1.00800           0
     24511 TIP3     4194     TP3      O        OW      -0.834000       16.0000           0
     24512 TIP3     4194     TP3      H1       HW       0.417000       1.00800           0
     24513 TIP3     4194     TP3      H2       HW       0.417000       1.00800           0
     24514 TIP3     4195     TP3      O        OW      -0.834000       16.0000           0
     24515 TIP3     4195     TP3      H1       HW       0.417000       1.00800           0
     24516 TIP3     4195     TP3      H2       HW       0.417000       1.00800           0
     24517 TIP3     4196     TP3      O        OW      -0.834000       16.0000           0
     24518 TIP3     4196     TP3      H1       HW       0.417000       1.00800           0
     24519 TIP3     4196     TP3      H2       HW       0.417000       1.00800           0
     24520 TIP3     4197     TP3      O        OW      -0.834000       16.0000           0
     24521 TIP3     4197     TP3      H1       HW       0.417000       1.00800           0
     24522 TIP3     4197     TP3      H2       HW       0.417000       1.00800           0
     24523 TIP3     4198     TP3      O        OW      -0.834000       16.0000           0
     24524 TIP3     4198     TP3      H1       HW       0.417000       1.00800           0
     24525 TIP3     4198     TP3      H2       HW       0.417000       1.00800           0
     24526 TIP3     4199     TP3      O        OW      -0.834000       16.0000           0
     24527 TIP3     4199     TP3      H1       HW       0.417000       1.00800           0
     24528 TIP3     4199     TP3      H2       HW       0.417000       1.00800           0
     24529 TIP3     4200     TP3      O        OW      -0.834000       16.0000           0
     24530 TIP3     4200     TP3      H1       HW       0.417000       1.00800           0
     24531 TIP3     4200     TP3      H2       HW       0.417000       1.00800           0
     24532 TIP3     4201     TP3      O        OW      -0.834000       16.0000           0
     24533 TIP3     4201     TP3      H1       HW       0.417000       1.00800           0
     24534 TIP3     4201     TP3      H2       HW       0.417000       1.00800           0
     24535 TIP3     4202     TP3      O        OW      -0.834000       16.0000           0
     24536 TIP3     4202     TP3      H1       HW       0.417000       1.00800           0
     24537 TIP3     4202     TP3      H2       HW       0.417000       1.00800           0
     24538 TIP3     4203     TP3      O        OW      -0.834000       16.0000           0
     24539 TIP3     4203     TP3      H1       HW       0.417000       1.00800           0
     24540 TIP3     4203     TP3      H2       HW       0.417000       1.00800           0
     24541 TIP3     4204     TP3      O        OW      -0.834000       16.0000           0
     24542 TIP3     4204     TP3      H1       HW       0.417000       1.00800           0
     24543 TIP3     4204     TP3      H2       HW       0.417000       1.00800           0
     24544 TIP3     4205     TP3      O        OW      -0.834000       16.0000           0
     24545 TIP3     4205     TP3      H1       HW       0.417000       1.00800           0
     24546 TIP3     4205     TP3      H2       HW       0.417000       1.00800           0
     24547 TIP3     4206     TP3      O        OW      -0.834000       16.0000           0
     24548 TIP3     4206     TP3      H1       HW       0.417000       1.00800           0
     24549 TIP3     4206     TP3      H2       HW       0.417000       1.00800           0
     24550 TIP3     4207     TP3      O        OW      -0.834000       16.0000           0
     24551 TIP3     4207     TP3      H1       HW       0.417000       1.00800           0
     24552 TIP3     4207     TP3      H2       HW       0.417000       1.00800           0
     24553 TIP3     4208     TP3      O        OW      -0.834000       16.0000           0
     24554 TIP3     4208     TP3      H1       HW       0.417000       1.00800           0
     24555 TIP3     4208     TP3      H2       HW       0.417000       1.00800           0
     24556 TIP3     4209     TP3      O        OW      -0.834000       16.0000           0
     24557 TIP3     4209     TP3      H1       HW       0.417000       1.00800           0
     24558 TIP3     4209     TP3      H2       HW       0.417000       1.00800           0
     24559 TIP3     4210     TP3      O        OW      -0.834000       16.0000           0
     24560 TIP3     4210     TP3      H1       HW       0.417000       1.00800           0
     24561 TIP3     4210     TP3      H2       HW       0.417000       1.00800           0
     24562 TIP3     4211     TP3      O        OW      -0.834000       16.0000           0
     24563 TIP3     4211     TP3      H1       HW       0.417000       1.00800           0
     24564 TIP3     4211     TP3      H2       HW       0.417000       1.00800           0
     24565 TIP3     4212     TP3      O        OW      -0.834000       16.0000           0
     24566 TIP3     4212     TP3      H1       HW       0.417000       1.00800           0
     24567 TIP3     4212     TP3      H2       HW       0.417000       1.00800           0
     24568 TIP3     4213     TP3      O        OW      -0.834000       16.0000           0
     24569 TIP3     4213     TP3      H1       HW       0.417000       1.00800           0
     24570 TIP3     4213     TP3      H2       HW       0.417000       1.00800           0
     24571 TIP3     4214     TP3      O        OW      -0.834000       16.0000           0
     24572 TIP3     4214     TP3      H1       HW       0.417000       1.00800           0
     24573 TIP3     4214     TP3      H2       HW       0.417000       1.00800           0
     24574 TIP3     4215     TP3      O        OW      -0.834000       16.0000           0
     24575 TIP3     4215     TP3      H1       HW       0.417000       1.00800           0
     24576 TIP3     4215     TP3      H2       HW       0.417000       1.00800           0
     24577 TIP3     4216     TP3      O        OW      -0.834000       16.0000           0
     24578 TIP3     4216     TP3      H1       HW       0.417000       1.00800           0
     24579 TIP3     4216     TP3      H2       HW       0.417000       1.00800           0
     24580 TIP3     4217     TP3      O        OW      -0.834000       16.0000           0
     24581 TIP3     4217     TP3      H1       HW       0.417000       1.00800           0
     24582 TIP3     4217     TP3      H2       HW       0.417000       1.00800           0
     24583 TIP3     4218     TP3      O        OW      -0.834000       16.0000           0
     24584 TIP3     4218     TP3      H1       HW       0.417000       1.00800           0
     24585 TIP3     4218     TP3      H2       HW       0.417000       1.00800           0
     24586 TIP3     4219     TP3      O        OW      -0.834000       16.0000           0
     24587 TIP3     4219     TP3      H1       HW       0.417000       1.00800           0
     24588 TIP3     4219     TP3      H2       HW       0.417000       1.00800           0
     24589 TIP3     4220     TP3      O        OW      -0.834000       16.0000           0
     24590 TIP3     4220     TP3      H1       HW       0.417000       1.00800           0
     24591 TIP3     4220     TP3      H2       HW       0.417000       1.00800           0
     24592 TIP3     4221     TP3      O        OW      -0.834000       16.0000           0
     24593 TIP3     4221     TP3      H1       HW       0.417000       1.00800           0
     24594 TIP3     4221     TP3      H2       HW       0.417000       1.00800           0
     24595 TIP3     4222     TP3      O        OW      -0.834000       16.0000           0
     24596 TIP3     4222     TP3      H1       HW       0.417000       1.00800           0
     24597 TIP3     4222     TP3      H2       HW       0.417000       1.00800           0
     24598 TIP3     4223     TP3      O        OW      -0.834000       16.0000           0
     24599 TIP3     4223     TP3      H1       HW       0.417000       1.00800           0
     24600 TIP3     4223     TP3      H2       HW       0.417000       1.00800           0
     24601 TIP3     4224     TP3      O        OW      -0.834000       16.0000           0
     24602 TIP3     4224     TP3      H1       HW       0.417000       1.00800           0
     24603 TIP3     4224     TP3      H2       HW       0.417000       1.00800           0
     24604 TIP3     4225     TP3      O        OW      -0.834000       16.0000           0
     24605 TIP3     4225     TP3      H1       HW       0.417000       1.00800           0
     24606 TIP3     4225     TP3      H2       HW       0.417000       1.00800           0
     24607 TIP3     4226     TP3      O        OW      -0.834000       16.0000           0
     24608 TIP3     4226     TP3      H1       HW       0.417000       1.00800           0
     24609 TIP3     4226     TP3      H2       HW       0.417000       1.00800           0
     24610 TIP3     4227     TP3      O        OW      -0.834000       16.0000           0
     24611 TIP3     4227     TP3      H1       HW       0.417000       1.00800           0
     24612 TIP3     4227     TP3      H2       HW       0.417000       1.00800           0
     24613 TIP3     4228     TP3      O        OW      -0.834000       16.0000           0
     24614 TIP3     4228     TP3      H1       HW       0.417000       1.00800           0
     24615 TIP3     4228     TP3      H2       HW       0.417000       1.00800           0
     24616 TIP3     4229     TP3      O        OW      -0.834000       16.0000           0
     24617 TIP3     4229     TP3      H1       HW       0.417000       1.00800           0
     24618 TIP3     4229     TP3      H2       HW       0.417000       1.00800           0
     24619 TIP3     4230     TP3      O        OW      -0.834000       16.0000           0
     24620 TIP3     4230     TP3      H1       HW       0.417000       1.00800           0
     24621 TIP3     4230     TP3      H2       HW       0.417000       1.00800           0
     24622 TIP3     4231     TP3      O        OW      -0.834000       16.0000           0
     24623 TIP3     4231     TP3      H1       HW       0.417000       1.00800           0
     24624 TIP3     4231     TP3      H2       HW       0.417000       1.00800           0
     24625 TIP3     4232     TP3      O        OW      -0.834000       16.0000           0
     24626 TIP3     4232     TP3      H1       HW       0.417000       1.00800           0
     24627 TIP3     4232     TP3      H2       HW       0.417000       1.00800           0
     24628 TIP3     4233     TP3      O        OW      -0.834000       16.0000           0
     24629 TIP3     4233     TP3      H1       HW       0.417000       1.00800           0
     24630 TIP3     4233     TP3      H2       HW       0.417000       1.00800           0
     24631 TIP3     4234     TP3      O        OW      -0.834000       16.0000           0
     24632 TIP3     4234     TP3      H1       HW       0.417000       1.00800           0
     24633 TIP3     4234     TP3      H2       HW       0.417000       1.00800           0
     24634 TIP3     4235     TP3      O        OW      -0.834000       16.0000           0
     24635 TIP3     4235     TP3      H1       HW       0.417000       1.00800           0
     24636 TIP3     4235     TP3      H2       HW       0.417000       1.00800           0
     24637 TIP3     4236     TP3      O        OW      -0.834000       16.0000           0
     24638 TIP3     4236     TP3      H1       HW       0.417000       1.00800           0
     24639 TIP3     4236     TP3      H2       HW       0.417000       1.00800           0
     24640 TIP3     4237     TP3      O        OW      -0.834000       16.0000           0
     24641 TIP3     4237     TP3      H1       HW       0.417000       1.00800           0
     24642 TIP3     4237     TP3      H2       HW       0.417000       1.00800           0
     24643 TIP3     4238     TP3      O        OW      -0.834000       16.0000           0
     24644 TIP3     4238     TP3      H1       HW       0.417000       1.00800           0
     24645 TIP3     4238     TP3      H2       HW       0.417000       1.00800           0
     24646 TIP3     4239     TP3      O        OW      -0.834000       16.0000           0
     24647 TIP3     4239     TP3      H1       HW       0.417000       1.00800           0
     24648 TIP3     4239     TP3      H2       HW       0.417000       1.00800           0
     24649 TIP3     4240     TP3      O        OW      -0.834000       16.0000           0
     24650 TIP3     4240     TP3      H1       HW       0.417000       1.00800           0
     24651 TIP3     4240     TP3      H2       HW       0.417000       1.00800           0
     24652 TIP3     4241     TP3      O        OW      -0.834000       16.0000           0
     24653 TIP3     4241     TP3      H1       HW       0.417000       1.00800           0
     24654 TIP3     4241     TP3      H2       HW       0.417000       1.00800           0
     24655 TIP3     4242     TP3      O        OW      -0.834000       16.0000           0
     24656 TIP3     4242     TP3      H1       HW       0.417000       1.00800           0
     24657 TIP3     4242     TP3      H2       HW       0.417000       1.00800           0
     24658 TIP3     4243     TP3      O        OW      -0.834000       16.0000           0
     24659 TIP3     4243     TP3      H1       HW       0.417000       1.00800           0
     24660 TIP3     4243     TP3      H2       HW       0.417000       1.00800           0
     24661 TIP3     4244     TP3      O        OW      -0.834000       16.0000           0
     24662 TIP3     4244     TP3      H1       HW       0.417000       1.00800           0
     24663 TIP3     4244     TP3      H2       HW       0.417000       1.00800           0
     24664 TIP3     4245     TP3      O        OW      -0.834000       16.0000           0
     24665 TIP3     4245     TP3      H1       HW       0.417000       1.00800           0
     24666 TIP3     4245     TP3      H2       HW       0.417000       1.00800           0
     24667 TIP3     4246     TP3      O        OW      -0.834000       16.0000           0
     24668 TIP3     4246     TP3      H1       HW       0.417000       1.00800           0
     24669 TIP3     4246     TP3      H2       HW       0.417000       1.00800           0
     24670 TIP3     4247     TP3      O        OW      -0.834000       16.0000           0
     24671 TIP3     4247     TP3      H1       HW       0.417000       1.00800           0
     24672 TIP3     4247     TP3      H2       HW       0.417000       1.00800           0
     24673 TIP3     4248     TP3      O        OW      -0.834000       16.0000           0
     24674 TIP3     4248     TP3      H1       HW       0.417000       1.00800           0
     24675 TIP3     4248     TP3      H2       HW       0.417000       1.00800           0
     24676 TIP3     4249     TP3      O        OW      -0.834000       16.0000           0
     24677 TIP3     4249     TP3      H1       HW       0.417000       1.00800           0
     24678 TIP3     4249     TP3      H2       HW       0.417000       1.00800           0
     24679 TIP3     4250     TP3      O        OW      -0.834000       16.0000           0
     24680 TIP3     4250     TP3      H1       HW       0.417000       1.00800           0
     24681 TIP3     4250     TP3      H2       HW       0.417000       1.00800           0
     24682 TIP3     4251     TP3      O        OW      -0.834000       16.0000           0
     24683 TIP3     4251     TP3      H1       HW       0.417000       1.00800           0
     24684 TIP3     4251     TP3      H2       HW       0.417000       1.00800           0
     24685 TIP3     4252     TP3      O        OW      -0.834000       16.0000           0
     24686 TIP3     4252     TP3      H1       HW       0.417000       1.00800           0
     24687 TIP3     4252     TP3      H2       HW       0.417000       1.00800           0
     24688 TIP3     4253     TP3      O        OW      -0.834000       16.0000           0
     24689 TIP3     4253     TP3      H1       HW       0.417000       1.00800           0
     24690 TIP3     4253     TP3      H2       HW       0.417000       1.00800           0
     24691 TIP3     4254     TP3      O        OW      -0.834000       16.0000           0
     24692 TIP3     4254     TP3      H1       HW       0.417000       1.00800           0
     24693 TIP3     4254     TP3      H2       HW       0.417000       1.00800           0
     24694 TIP3     4255     TP3      O        OW      -0.834000       16.0000           0
     24695 TIP3     4255     TP3      H1       HW       0.417000       1.00800           0
     24696 TIP3     4255     TP3      H2       HW       0.417000       1.00800           0
     24697 TIP3     4256     TP3      O        OW      -0.834000       16.0000           0
     24698 TIP3     4256     TP3      H1       HW       0.417000       1.00800           0
     24699 TIP3     4256     TP3      H2       HW       0.417000       1.00800           0
     24700 TIP3     4257     TP3      O        OW      -0.834000       16.0000           0
     24701 TIP3     4257     TP3      H1       HW       0.417000       1.00800           0
     24702 TIP3     4257     TP3      H2       HW       0.417000       1.00800           0
     24703 TIP3     4258     TP3      O        OW      -0.834000       16.0000           0
     24704 TIP3     4258     TP3      H1       HW       0.417000       1.00800           0
     24705 TIP3     4258     TP3      H2       HW       0.417000       1.00800           0
     24706 TIP3     4259     TP3      O        OW      -0.834000       16.0000           0
     24707 TIP3     4259     TP3      H1       HW       0.417000       1.00800           0
     24708 TIP3     4259     TP3      H2       HW       0.417000       1.00800           0
     24709 TIP3     4260     TP3      O        OW      -0.834000       16.0000           0
     24710 TIP3     4260     TP3      H1       HW       0.417000       1.00800           0
     24711 TIP3     4260     TP3      H2       HW       0.417000       1.00800           0
     24712 TIP3     4261     TP3      O        OW      -0.834000       16.0000           0
     24713 TIP3     4261     TP3      H1       HW       0.417000       1.00800           0
     24714 TIP3     4261     TP3      H2       HW       0.417000       1.00800           0
     24715 TIP3     4262     TP3      O        OW      -0.834000       16.0000           0
     24716 TIP3     4262     TP3      H1       HW       0.417000       1.00800           0
     24717 TIP3     4262     TP3      H2       HW       0.417000       1.00800           0
     24718 TIP3     4263     TP3      O        OW      -0.834000       16.0000           0
     24719 TIP3     4263     TP3      H1       HW       0.417000       1.00800           0
     24720 TIP3     4263     TP3      H2       HW       0.417000       1.00800           0
     24721 TIP3     4264     TP3      O        OW      -0.834000       16.0000           0
     24722 TIP3     4264     TP3      H1       HW       0.417000       1.00800           0
     24723 TIP3     4264     TP3      H2       HW       0.417000       1.00800           0
     24724 TIP3     4265     TP3      O        OW      -0.834000       16.0000           0
     24725 TIP3     4265     TP3      H1       HW       0.417000       1.00800           0
     24726 TIP3     4265     TP3      H2       HW       0.417000       1.00800           0
     24727 TIP3     4266     TP3      O        OW      -0.834000       16.0000           0
     24728 TIP3     4266     TP3      H1       HW       0.417000       1.00800           0
     24729 TIP3     4266     TP3      H2       HW       0.417000       1.00800           0
     24730 TIP3     4267     TP3      O        OW      -0.834000       16.0000           0
     24731 TIP3     4267     TP3      H1       HW       0.417000       1.00800           0
     24732 TIP3     4267     TP3      H2       HW       0.417000       1.00800           0
     24733 TIP3     4268     TP3      O        OW      -0.834000       16.0000           0
     24734 TIP3     4268     TP3      H1       HW       0.417000       1.00800           0
     24735 TIP3     4268     TP3      H2       HW       0.417000       1.00800           0
     24736 TIP3     4269     TP3      O        OW      -0.834000       16.0000           0
     24737 TIP3     4269     TP3      H1       HW       0.417000       1.00800           0
     24738 TIP3     4269     TP3      H2       HW       0.417000       1.00800           0
     24739 TIP3     4270     TP3      O        OW      -0.834000       16.0000           0
     24740 TIP3     4270     TP3      H1       HW       0.417000       1.00800           0
     24741 TIP3     4270     TP3      H2       HW       0.417000       1.00800           0
     24742 TIP3     4271     TP3      O        OW      -0.834000       16.0000           0
     24743 TIP3     4271     TP3      H1       HW       0.417000       1.00800           0
     24744 TIP3     4271     TP3      H2       HW       0.417000       1.00800           0
     24745 TIP3     4272     TP3      O        OW      -0.834000       16.0000           0
     24746 TIP3     4272     TP3      H1       HW       0.417000       1.00800           0
     24747 TIP3     4272     TP3      H2       HW       0.417000       1.00800           0
     24748 TIP3     4273     TP3      O        OW      -0.834000       16.0000           0
     24749 TIP3     4273     TP3      H1       HW       0.417000       1.00800           0
     24750 TIP3     4273     TP3      H2       HW       0.417000       1.00800           0
     24751 TIP3     4274     TP3      O        OW      -0.834000       16.0000           0
     24752 TIP3     4274     TP3      H1       HW       0.417000       1.00800           0
     24753 TIP3     4274     TP3      H2       HW       0.417000       1.00800           0
     24754 TIP3     4275     TP3      O        OW      -0.834000       16.0000           0
     24755 TIP3     4275     TP3      H1       HW       0.417000       1.00800           0
     24756 TIP3     4275     TP3      H2       HW       0.417000       1.00800           0
     24757 TIP3     4276     TP3      O        OW      -0.834000       16.0000           0
     24758 TIP3     4276     TP3      H1       HW       0.417000       1.00800           0
     24759 TIP3     4276     TP3      H2       HW       0.417000       1.00800           0
     24760 TIP3     4277     TP3      O        OW      -0.834000       16.0000           0
     24761 TIP3     4277     TP3      H1       HW       0.417000       1.00800           0
     24762 TIP3     4277     TP3      H2       HW       0.417000       1.00800           0
     24763 TIP3     4278     TP3      O        OW      -0.834000       16.0000           0
     24764 TIP3     4278     TP3      H1       HW       0.417000       1.00800           0
     24765 TIP3     4278     TP3      H2       HW       0.417000       1.00800           0
     24766 TIP3     4279     TP3      O        OW      -0.834000       16.0000           0
     24767 TIP3     4279     TP3      H1       HW       0.417000       1.00800           0
     24768 TIP3     4279     TP3      H2       HW       0.417000       1.00800           0
     24769 TIP3     4280     TP3      O        OW      -0.834000       16.0000           0
     24770 TIP3     4280     TP3      H1       HW       0.417000       1.00800           0
     24771 TIP3     4280     TP3      H2       HW       0.417000       1.00800           0
     24772 TIP3     4281     TP3      O        OW      -0.834000       16.0000           0
     24773 TIP3     4281     TP3      H1       HW       0.417000       1.00800           0
     24774 TIP3     4281     TP3      H2       HW       0.417000       1.00800           0
     24775 TIP3     4282     TP3      O        OW      -0.834000       16.0000           0
     24776 TIP3     4282     TP3      H1       HW       0.417000       1.00800           0
     24777 TIP3     4282     TP3      H2       HW       0.417000       1.00800           0
     24778 TIP3     4283     TP3      O        OW      -0.834000       16.0000           0
     24779 TIP3     4283     TP3      H1       HW       0.417000       1.00800           0
     24780 TIP3     4283     TP3      H2       HW       0.417000       1.00800           0
     24781 TIP3     4284     TP3      O        OW      -0.834000       16.0000           0
     24782 TIP3     4284     TP3      H1       HW       0.417000       1.00800           0
     24783 TIP3     4284     TP3      H2       HW       0.417000       1.00800           0
     24784 TIP3     4285     TP3      O        OW      -0.834000       16.0000           0
     24785 TIP3     4285     TP3      H1       HW       0.417000       1.00800           0
     24786 TIP3     4285     TP3      H2       HW       0.417000       1.00800           0
     24787 TIP3     4286     TP3      O        OW      -0.834000       16.0000           0
     24788 TIP3     4286     TP3      H1       HW       0.417000       1.00800           0
     24789 TIP3     4286     TP3      H2       HW       0.417000       1.00800           0
     24790 TIP3     4287     TP3      O        OW      -0.834000       16.0000           0
     24791 TIP3     4287     TP3      H1       HW       0.417000       1.00800           0
     24792 TIP3     4287     TP3      H2       HW       0.417000       1.00800           0
     24793 TIP3     4288     TP3      O        OW      -0.834000       16.0000           0
     24794 TIP3     4288     TP3      H1       HW       0.417000       1.00800           0
     24795 TIP3     4288     TP3      H2       HW       0.417000       1.00800           0
     24796 TIP3     4289     TP3      O        OW      -0.834000       16.0000           0
     24797 TIP3     4289     TP3      H1       HW       0.417000       1.00800           0
     24798 TIP3     4289     TP3      H2       HW       0.417000       1.00800           0
     24799 TIP3     4290     TP3      O        OW      -0.834000       16.0000           0
     24800 TIP3     4290     TP3      H1       HW       0.417000       1.00800           0
     24801 TIP3     4290     TP3      H2       HW       0.417000       1.00800           0
     24802 TIP3     4291     TP3      O        OW      -0.834000       16.0000           0
     24803 TIP3     4291     TP3      H1       HW       0.417000       1.00800           0
     24804 TIP3     4291     TP3      H2       HW       0.417000       1.00800           0
     24805 TIP3     4292     TP3      O        OW      -0.834000       16.0000           0
     24806 TIP3     4292     TP3      H1       HW       0.417000       1.00800           0
     24807 TIP3     4292     TP3      H2       HW       0.417000       1.00800           0
     24808 TIP3     4293     TP3      O        OW      -0.834000       16.0000           0
     24809 TIP3     4293     TP3      H1       HW       0.417000       1.00800           0
     24810 TIP3     4293     TP3      H2       HW       0.417000       1.00800           0
     24811 TIP3     4294     TP3      O        OW      -0.834000       16.0000           0
     24812 TIP3     4294     TP3      H1       HW       0.417000       1.00800           0
     24813 TIP3     4294     TP3      H2       HW       0.417000       1.00800           0
     24814 TIP3     4295     TP3      O        OW      -0.834000       16.0000           0
     24815 TIP3     4295     TP3      H1       HW       0.417000       1.00800           0
     24816 TIP3     4295     TP3      H2       HW       0.417000       1.00800           0
     24817 TIP3     4296     TP3      O        OW      -0.834000       16.0000           0
     24818 TIP3     4296     TP3      H1       HW       0.417000       1.00800           0
     24819 TIP3     4296     TP3      H2       HW       0.417000       1.00800           0
     24820 TIP3     4297     TP3      O        OW      -0.834000       16.0000           0
     24821 TIP3     4297     TP3      H1       HW       0.417000       1.00800           0
     24822 TIP3     4297     TP3      H2       HW       0.417000       1.00800           0
     24823 TIP3     4298     TP3      O        OW      -0.834000       16.0000           0
     24824 TIP3     4298     TP3      H1       HW       0.417000       1.00800           0
     24825 TIP3     4298     TP3      H2       HW       0.417000       1.00800           0
     24826 TIP3     4299     TP3      O        OW      -0.834000       16.0000           0
     24827 TIP3     4299     TP3      H1       HW       0.417000       1.00800           0
     24828 TIP3     4299     TP3      H2       HW       0.417000       1.00800           0
     24829 TIP3     4300     TP3      O        OW      -0.834000       16.0000           0
     24830 TIP3     4300     TP3      H1       HW       0.417000       1.00800           0
     24831 TIP3     4300     TP3      H2       HW       0.417000       1.00800           0
     24832 TIP3     4301     TP3      O        OW      -0.834000       16.0000           0
     24833 TIP3     4301     TP3      H1       HW       0.417000       1.00800           0
     24834 TIP3     4301     TP3      H2       HW       0.417000       1.00800           0
     24835 TIP3     4302     TP3      O        OW      -0.834000       16.0000           0
     24836 TIP3     4302     TP3      H1       HW       0.417000       1.00800           0
     24837 TIP3     4302     TP3      H2       HW       0.417000       1.00800           0
     24838 TIP3     4303     TP3      O        OW      -0.834000       16.0000           0
     24839 TIP3     4303     TP3      H1       HW       0.417000       1.00800           0
     24840 TIP3     4303     TP3      H2       HW       0.417000       1.00800           0
     24841 TIP3     4304     TP3      O        OW      -0.834000       16.0000           0
     24842 TIP3     4304     TP3      H1       HW       0.417000       1.00800           0
     24843 TIP3     4304     TP3      H2       HW       0.417000       1.00800           0
     24844 TIP3     4305     TP3      O        OW      -0.834000       16.0000           0
     24845 TIP3     4305     TP3      H1       HW       0.417000       1.00800           0
     24846 TIP3     4305     TP3      H2       HW       0.417000       1.00800           0
     24847 TIP3     4306     TP3      O        OW      -0.834000       16.0000           0
     24848 TIP3     4306     TP3      H1       HW       0.417000       1.00800           0
     24849 TIP3     4306     TP3      H2       HW       0.417000       1.00800           0
     24850 TIP3     4307     TP3      O        OW      -0.834000       16.0000           0
     24851 TIP3     4307     TP3      H1       HW       0.417000       1.00800           0
     24852 TIP3     4307     TP3      H2       HW       0.417000       1.00800           0
     24853 TIP3     4308     TP3      O        OW      -0.834000       16.0000           0
     24854 TIP3     4308     TP3      H1       HW       0.417000       1.00800           0
     24855 TIP3     4308     TP3      H2       HW       0.417000       1.00800           0
     24856 TIP3     4309     TP3      O        OW      -0.834000       16.0000           0
     24857 TIP3     4309     TP3      H1       HW       0.417000       1.00800           0
     24858 TIP3     4309     TP3      H2       HW       0.417000       1.00800           0
     24859 TIP3     4310     TP3      O        OW      -0.834000       16.0000           0
     24860 TIP3     4310     TP3      H1       HW       0.417000       1.00800           0
     24861 TIP3     4310     TP3      H2       HW       0.417000       1.00800           0
     24862 TIP3     4311     TP3      O        OW      -0.834000       16.0000           0
     24863 TIP3     4311     TP3      H1       HW       0.417000       1.00800           0
     24864 TIP3     4311     TP3      H2       HW       0.417000       1.00800           0
     24865 TIP3     4312     TP3      O        OW      -0.834000       16.0000           0
     24866 TIP3     4312     TP3      H1       HW       0.417000       1.00800           0
     24867 TIP3     4312     TP3      H2       HW       0.417000       1.00800           0
     24868 TIP3     4313     TP3      O        OW      -0.834000       16.0000           0
     24869 TIP3     4313     TP3      H1       HW       0.417000       1.00800           0
     24870 TIP3     4313     TP3      H2       HW       0.417000       1.00800           0
     24871 TIP3     4314     TP3      O        OW      -0.834000       16.0000           0
     24872 TIP3     4314     TP3      H1       HW       0.417000       1.00800           0
     24873 TIP3     4314     TP3      H2       HW       0.417000       1.00800           0
     24874 TIP3     4315     TP3      O        OW      -0.834000       16.0000           0
     24875 TIP3     4315     TP3      H1       HW       0.417000       1.00800           0
     24876 TIP3     4315     TP3      H2       HW       0.417000       1.00800           0
     24877 TIP3     4316     TP3      O        OW      -0.834000       16.0000           0
     24878 TIP3     4316     TP3      H1       HW       0.417000       1.00800           0
     24879 TIP3     4316     TP3      H2       HW       0.417000       1.00800           0
     24880 TIP3     4317     TP3      O        OW      -0.834000       16.0000           0
     24881 TIP3     4317     TP3      H1       HW       0.417000       1.00800           0
     24882 TIP3     4317     TP3      H2       HW       0.417000       1.00800           0
     24883 TIP3     4318     TP3      O        OW      -0.834000       16.0000           0
     24884 TIP3     4318     TP3      H1       HW       0.417000       1.00800           0
     24885 TIP3     4318     TP3      H2       HW       0.417000       1.00800           0
     24886 TIP3     4319     TP3      O        OW      -0.834000       16.0000           0
     24887 TIP3     4319     TP3      H1       HW       0.417000       1.00800           0
     24888 TIP3     4319     TP3      H2       HW       0.417000       1.00800           0
     24889 TIP3     4320     TP3      O        OW      -0.834000       16.0000           0
     24890 TIP3     4320     TP3      H1       HW       0.417000       1.00800           0
     24891 TIP3     4320     TP3      H2       HW       0.417000       1.00800           0
     24892 TIP3     4321     TP3      O        OW      -0.834000       16.0000           0
     24893 TIP3     4321     TP3      H1       HW       0.417000       1.00800           0
     24894 TIP3     4321     TP3      H2       HW       0.417000       1.00800           0
     24895 TIP3     4322     TP3      O        OW      -0.834000       16.0000           0
     24896 TIP3     4322     TP3      H1       HW       0.417000       1.00800           0
     24897 TIP3     4322     TP3      H2       HW       0.417000       1.00800           0
     24898 TIP3     4323     TP3      O        OW      -0.834000       16.0000           0
     24899 TIP3     4323     TP3      H1       HW       0.417000       1.00800           0
     24900 TIP3     4323     TP3      H2       HW       0.417000       1.00800           0
     24901 TIP3     4324     TP3      O        OW      -0.834000       16.0000           0
     24902 TIP3     4324     TP3      H1       HW       0.417000       1.00800           0
     24903 TIP3     4324     TP3      H2       HW       0.417000       1.00800           0
     24904 TIP3     4325     TP3      O        OW      -0.834000       16.0000           0
     24905 TIP3     4325     TP3      H1       HW       0.417000       1.00800           0
     24906 TIP3     4325     TP3      H2       HW       0.417000       1.00800           0
     24907 TIP3     4326     TP3      O        OW      -0.834000       16.0000           0
     24908 TIP3     4326     TP3      H1       HW       0.417000       1.00800           0
     24909 TIP3     4326     TP3      H2       HW       0.417000       1.00800           0
     24910 TIP3     4327     TP3      O        OW      -0.834000       16.0000           0
     24911 TIP3     4327     TP3      H1       HW       0.417000       1.00800           0
     24912 TIP3     4327     TP3      H2       HW       0.417000       1.00800           0
     24913 TIP3     4328     TP3      O        OW      -0.834000       16.0000           0
     24914 TIP3     4328     TP3      H1       HW       0.417000       1.00800           0
     24915 TIP3     4328     TP3      H2       HW       0.417000       1.00800           0
     24916 TIP3     4329     TP3      O        OW      -0.834000       16.0000           0
     24917 TIP3     4329     TP3      H1       HW       0.417000       1.00800           0
     24918 TIP3     4329     TP3      H2       HW       0.417000       1.00800           0
     24919 TIP3     4330     TP3      O        OW      -0.834000       16.0000           0
     24920 TIP3     4330     TP3      H1       HW       0.417000       1.00800           0
     24921 TIP3     4330     TP3      H2       HW       0.417000       1.00800           0
     24922 TIP3     4331     TP3      O        OW      -0.834000       16.0000           0
     24923 TIP3     4331     TP3      H1       HW       0.417000       1.00800           0
     24924 TIP3     4331     TP3      H2       HW       0.417000       1.00800           0
     24925 TIP3     4332     TP3      O        OW      -0.834000       16.0000           0
     24926 TIP3     4332     TP3      H1       HW       0.417000       1.00800           0
     24927 TIP3     4332     TP3      H2       HW       0.417000       1.00800           0
     24928 TIP3     4333     TP3      O        OW      -0.834000       16.0000           0
     24929 TIP3     4333     TP3      H1       HW       0.417000       1.00800           0
     24930 TIP3     4333     TP3      H2       HW       0.417000       1.00800           0
     24931 TIP3     4334     TP3      O        OW      -0.834000       16.0000           0
     24932 TIP3     4334     TP3      H1       HW       0.417000       1.00800           0
     24933 TIP3     4334     TP3      H2       HW       0.417000       1.00800           0
     24934 TIP3     4335     TP3      O        OW      -0.834000       16.0000           0
     24935 TIP3     4335     TP3      H1       HW       0.417000       1.00800           0
     24936 TIP3     4335     TP3      H2       HW       0.417000       1.00800           0
     24937 TIP3     4336     TP3      O        OW      -0.834000       16.0000           0
     24938 TIP3     4336     TP3      H1       HW       0.417000       1.00800           0
     24939 TIP3     4336     TP3      H2       HW       0.417000       1.00800           0
     24940 TIP3     4337     TP3      O        OW      -0.834000       16.0000           0
     24941 TIP3     4337     TP3      H1       HW       0.417000       1.00800           0
     24942 TIP3     4337     TP3      H2       HW       0.417000       1.00800           0
     24943 TIP3     4338     TP3      O        OW      -0.834000       16.0000           0
     24944 TIP3     4338     TP3      H1       HW       0.417000       1.00800           0
     24945 TIP3     4338     TP3      H2       HW       0.417000       1.00800           0
     24946 TIP3     4339     TP3      O        OW      -0.834000       16.0000           0
     24947 TIP3     4339     TP3      H1       HW       0.417000       1.00800           0
     24948 TIP3     4339     TP3      H2       HW       0.417000       1.00800           0
     24949 TIP3     4340     TP3      O        OW      -0.834000       16.0000           0
     24950 TIP3     4340     TP3      H1       HW       0.417000       1.00800           0
     24951 TIP3     4340     TP3      H2       HW       0.417000       1.00800           0
     24952 TIP3     4341     TP3      O        OW      -0.834000       16.0000           0
     24953 TIP3     4341     TP3      H1       HW       0.417000       1.00800           0
     24954 TIP3     4341     TP3      H2       HW       0.417000       1.00800           0
     24955 TIP3     4342     TP3      O        OW      -0.834000       16.0000           0
     24956 TIP3     4342     TP3      H1       HW       0.417000       1.00800           0
     24957 TIP3     4342     TP3      H2       HW       0.417000       1.00800           0
     24958 TIP3     4343     TP3      O        OW      -0.834000       16.0000           0
     24959 TIP3     4343     TP3      H1       HW       0.417000       1.00800           0
     24960 TIP3     4343     TP3      H2       HW       0.417000       1.00800           0
     24961 TIP3     4344     TP3      O        OW      -0.834000       16.0000           0
     24962 TIP3     4344     TP3      H1       HW       0.417000       1.00800           0
     24963 TIP3     4344     TP3      H2       HW       0.417000       1.00800           0
     24964 TIP3     4345     TP3      O        OW      -0.834000       16.0000           0
     24965 TIP3     4345     TP3      H1       HW       0.417000       1.00800           0
     24966 TIP3     4345     TP3      H2       HW       0.417000       1.00800           0
     24967 TIP3     4346     TP3      O        OW      -0.834000       16.0000           0
     24968 TIP3     4346     TP3      H1       HW       0.417000       1.00800           0
     24969 TIP3     4346     TP3      H2       HW       0.417000       1.00800           0
     24970 TIP3     4347     TP3      O        OW      -0.834000       16.0000           0
     24971 TIP3     4347     TP3      H1       HW       0.417000       1.00800           0
     24972 TIP3     4347     TP3      H2       HW       0.417000       1.00800           0
     24973 TIP3     4348     TP3      O        OW      -0.834000       16.0000           0
     24974 TIP3     4348     TP3      H1       HW       0.417000       1.00800           0
     24975 TIP3     4348     TP3      H2       HW       0.417000       1.00800           0
     24976 TIP3     4349     TP3      O        OW      -0.834000       16.0000           0
     24977 TIP3     4349     TP3      H1       HW       0.417000       1.00800           0
     24978 TIP3     4349     TP3      H2       HW       0.417000       1.00800           0
     24979 TIP3     4350     TP3      O        OW      -0.834000       16.0000           0
     24980 TIP3     4350     TP3      H1       HW       0.417000       1.00800           0
     24981 TIP3     4350     TP3      H2       HW       0.417000       1.00800           0
     24982 TIP3     4351     TP3      O        OW      -0.834000       16.0000           0
     24983 TIP3     4351     TP3      H1       HW       0.417000       1.00800           0
     24984 TIP3     4351     TP3      H2       HW       0.417000       1.00800           0
     24985 TIP3     4352     TP3      O        OW      -0.834000       16.0000           0
     24986 TIP3     4352     TP3      H1       HW       0.417000       1.00800           0
     24987 TIP3     4352     TP3      H2       HW       0.417000       1.00800           0
     24988 TIP3     4353     TP3      O        OW      -0.834000       16.0000           0
     24989 TIP3     4353     TP3      H1       HW       0.417000       1.00800           0
     24990 TIP3     4353     TP3      H2       HW       0.417000       1.00800           0
     24991 TIP3     4354     TP3      O        OW      -0.834000       16.0000           0
     24992 TIP3     4354     TP3      H1       HW       0.417000       1.00800           0
     24993 TIP3     4354     TP3      H2       HW       0.417000       1.00800           0
     24994 TIP3     4355     TP3      O        OW      -0.834000       16.0000           0
     24995 TIP3     4355     TP3      H1       HW       0.417000       1.00800           0
     24996 TIP3     4355     TP3      H2       HW       0.417000       1.00800           0
     24997 TIP3     4356     TP3      O        OW      -0.834000       16.0000           0
     24998 TIP3     4356     TP3      H1       HW       0.417000       1.00800           0
     24999 TIP3     4356     TP3      H2       HW       0.417000       1.00800           0
     25000 TIP3     4357     TP3      O        OW      -0.834000       16.0000           0
     25001 TIP3     4357     TP3      H1       HW       0.417000       1.00800           0
     25002 TIP3     4357     TP3      H2       HW       0.417000       1.00800           0
     25003 TIP3     4358     TP3      O        OW      -0.834000       16.0000           0
     25004 TIP3     4358     TP3      H1       HW       0.417000       1.00800           0
     25005 TIP3     4358     TP3      H2       HW       0.417000       1.00800           0
     25006 TIP3     4359     TP3      O        OW      -0.834000       16.0000           0
     25007 TIP3     4359     TP3      H1       HW       0.417000       1.00800           0
     25008 TIP3     4359     TP3      H2       HW       0.417000       1.00800           0
     25009 TIP3     4360     TP3      O        OW      -0.834000       16.0000           0
     25010 TIP3     4360     TP3      H1       HW       0.417000       1.00800           0
     25011 TIP3     4360     TP3      H2       HW       0.417000       1.00800           0
     25012 TIP3     4361     TP3      O        OW      -0.834000       16.0000           0
     25013 TIP3     4361     TP3      H1       HW       0.417000       1.00800           0
     25014 TIP3     4361     TP3      H2       HW       0.417000       1.00800           0
     25015 TIP3     4362     TP3      O        OW      -0.834000       16.0000           0
     25016 TIP3     4362     TP3      H1       HW       0.417000       1.00800           0
     25017 TIP3     4362     TP3      H2       HW       0.417000       1.00800           0
     25018 TIP3     4363     TP3      O        OW      -0.834000       16.0000           0
     25019 TIP3     4363     TP3      H1       HW       0.417000       1.00800           0
     25020 TIP3     4363     TP3      H2       HW       0.417000       1.00800           0
     25021 TIP3     4364     TP3      O        OW      -0.834000       16.0000           0
     25022 TIP3     4364     TP3      H1       HW       0.417000       1.00800           0
     25023 TIP3     4364     TP3      H2       HW       0.417000       1.00800           0
     25024 TIP3     4365     TP3      O        OW      -0.834000       16.0000           0
     25025 TIP3     4365     TP3      H1       HW       0.417000       1.00800           0
     25026 TIP3     4365     TP3      H2       HW       0.417000       1.00800           0
     25027 TIP3     4366     TP3      O        OW      -0.834000       16.0000           0
     25028 TIP3     4366     TP3      H1       HW       0.417000       1.00800           0
     25029 TIP3     4366     TP3      H2       HW       0.417000       1.00800           0
     25030 TIP3     4367     TP3      O        OW      -0.834000       16.0000           0
     25031 TIP3     4367     TP3      H1       HW       0.417000       1.00800           0
     25032 TIP3     4367     TP3      H2       HW       0.417000       1.00800           0
     25033 TIP3     4368     TP3      O        OW      -0.834000       16.0000           0
     25034 TIP3     4368     TP3      H1       HW       0.417000       1.00800           0
     25035 TIP3     4368     TP3      H2       HW       0.417000       1.00800           0
     25036 TIP3     4369     TP3      O        OW      -0.834000       16.0000           0
     25037 TIP3     4369     TP3      H1       HW       0.417000       1.00800           0
     25038 TIP3     4369     TP3      H2       HW       0.417000       1.00800           0
     25039 TIP3     4370     TP3      O        OW      -0.834000       16.0000           0
     25040 TIP3     4370     TP3      H1       HW       0.417000       1.00800           0
     25041 TIP3     4370     TP3      H2       HW       0.417000       1.00800           0
     25042 TIP3     4371     TP3      O        OW      -0.834000       16.0000           0
     25043 TIP3     4371     TP3      H1       HW       0.417000       1.00800           0
     25044 TIP3     4371     TP3      H2       HW       0.417000       1.00800           0
     25045 TIP3     4372     TP3      O        OW      -0.834000       16.0000           0
     25046 TIP3     4372     TP3      H1       HW       0.417000       1.00800           0
     25047 TIP3     4372     TP3      H2       HW       0.417000       1.00800           0
     25048 TIP3     4373     TP3      O        OW      -0.834000       16.0000           0
     25049 TIP3     4373     TP3      H1       HW       0.417000       1.00800           0
     25050 TIP3     4373     TP3      H2       HW       0.417000       1.00800           0
     25051 TIP3     4374     TP3      O        OW      -0.834000       16.0000           0
     25052 TIP3     4374     TP3      H1       HW       0.417000       1.00800           0
     25053 TIP3     4374     TP3      H2       HW       0.417000       1.00800           0
     25054 TIP3     4375     TP3      O        OW      -0.834000       16.0000           0
     25055 TIP3     4375     TP3      H1       HW       0.417000       1.00800           0
     25056 TIP3     4375     TP3      H2       HW       0.417000       1.00800           0
     25057 TIP3     4376     TP3      O        OW      -0.834000       16.0000           0
     25058 TIP3     4376     TP3      H1       HW       0.417000       1.00800           0
     25059 TIP3     4376     TP3      H2       HW       0.417000       1.00800           0
     25060 TIP3     4377     TP3      O        OW      -0.834000       16.0000           0
     25061 TIP3     4377     TP3      H1       HW       0.417000       1.00800           0
     25062 TIP3     4377     TP3      H2       HW       0.417000       1.00800           0
     25063 TIP3     4378     TP3      O        OW      -0.834000       16.0000           0
     25064 TIP3     4378     TP3      H1       HW       0.417000       1.00800           0
     25065 TIP3     4378     TP3      H2       HW       0.417000       1.00800           0
     25066 TIP3     4379     TP3      O        OW      -0.834000       16.0000           0
     25067 TIP3     4379     TP3      H1       HW       0.417000       1.00800           0
     25068 TIP3     4379     TP3      H2       HW       0.417000       1.00800           0
     25069 TIP3     4380     TP3      O        OW      -0.834000       16.0000           0
     25070 TIP3     4380     TP3      H1       HW       0.417000       1.00800           0
     25071 TIP3     4380     TP3      H2       HW       0.417000       1.00800           0
     25072 TIP3     4381     TP3      O        OW      -0.834000       16.0000           0
     25073 TIP3     4381     TP3      H1       HW       0.417000       1.00800           0
     25074 TIP3     4381     TP3      H2       HW       0.417000       1.00800           0
     25075 TIP3     4382     TP3      O        OW      -0.834000       16.0000           0
     25076 TIP3     4382     TP3      H1       HW       0.417000       1.00800           0
     25077 TIP3     4382     TP3      H2       HW       0.417000       1.00800           0
     25078 TIP3     4383     TP3      O        OW      -0.834000       16.0000           0
     25079 TIP3     4383     TP3      H1       HW       0.417000       1.00800           0
     25080 TIP3     4383     TP3      H2       HW       0.417000       1.00800           0
     25081 TIP3     4384     TP3      O        OW      -0.834000       16.0000           0
     25082 TIP3     4384     TP3      H1       HW       0.417000       1.00800           0
     25083 TIP3     4384     TP3      H2       HW       0.417000       1.00800           0
     25084 TIP3     4385     TP3      O        OW      -0.834000       16.0000           0
     25085 TIP3     4385     TP3      H1       HW       0.417000       1.00800           0
     25086 TIP3     4385     TP3      H2       HW       0.417000       1.00800           0
     25087 TIP3     4386     TP3      O        OW      -0.834000       16.0000           0
     25088 TIP3     4386     TP3      H1       HW       0.417000       1.00800           0
     25089 TIP3     4386     TP3      H2       HW       0.417000       1.00800           0
     25090 TIP3     4387     TP3      O        OW      -0.834000       16.0000           0
     25091 TIP3     4387     TP3      H1       HW       0.417000       1.00800           0
     25092 TIP3     4387     TP3      H2       HW       0.417000       1.00800           0
     25093 TIP3     4388     TP3      O        OW      -0.834000       16.0000           0
     25094 TIP3     4388     TP3      H1       HW       0.417000       1.00800           0
     25095 TIP3     4388     TP3      H2       HW       0.417000       1.00800           0
     25096 TIP3     4389     TP3      O        OW      -0.834000       16.0000           0
     25097 TIP3     4389     TP3      H1       HW       0.417000       1.00800           0
     25098 TIP3     4389     TP3      H2       HW       0.417000       1.00800           0
     25099 TIP3     4390     TP3      O        OW      -0.834000       16.0000           0
     25100 TIP3     4390     TP3      H1       HW       0.417000       1.00800           0
     25101 TIP3     4390     TP3      H2       HW       0.417000       1.00800           0
     25102 TIP3     4391     TP3      O        OW      -0.834000       16.0000           0
     25103 TIP3     4391     TP3      H1       HW       0.417000       1.00800           0
     25104 TIP3     4391     TP3      H2       HW       0.417000       1.00800           0
     25105 TIP3     4392     TP3      O        OW      -0.834000       16.0000           0
     25106 TIP3     4392     TP3      H1       HW       0.417000       1.00800           0
     25107 TIP3     4392     TP3      H2       HW       0.417000       1.00800           0
     25108 TIP3     4393     TP3      O        OW      -0.834000       16.0000           0
     25109 TIP3     4393     TP3      H1       HW       0.417000       1.00800           0
     25110 TIP3     4393     TP3      H2       HW       0.417000       1.00800           0
     25111 TIP3     4394     TP3      O        OW      -0.834000       16.0000           0
     25112 TIP3     4394     TP3      H1       HW       0.417000       1.00800           0
     25113 TIP3     4394     TP3      H2       HW       0.417000       1.00800           0
     25114 TIP3     4395     TP3      O        OW      -0.834000       16.0000           0
     25115 TIP3     4395     TP3      H1       HW       0.417000       1.00800           0
     25116 TIP3     4395     TP3      H2       HW       0.417000       1.00800           0
     25117 TIP3     4396     TP3      O        OW      -0.834000       16.0000           0
     25118 TIP3     4396     TP3      H1       HW       0.417000       1.00800           0
     25119 TIP3     4396     TP3      H2       HW       0.417000       1.00800           0
     25120 TIP3     4397     TP3      O        OW      -0.834000       16.0000           0
     25121 TIP3     4397     TP3      H1       HW       0.417000       1.00800           0
     25122 TIP3     4397     TP3      H2       HW       0.417000       1.00800           0
     25123 TIP3     4398     TP3      O        OW      -0.834000       16.0000           0
     25124 TIP3     4398     TP3      H1       HW       0.417000       1.00800           0
     25125 TIP3     4398     TP3      H2       HW       0.417000       1.00800           0
     25126 TIP3     4399     TP3      O        OW      -0.834000       16.0000           0
     25127 TIP3     4399     TP3      H1       HW       0.417000       1.00800           0
     25128 TIP3     4399     TP3      H2       HW       0.417000       1.00800           0
     25129 TIP3     4400     TP3      O        OW      -0.834000       16.0000           0
     25130 TIP3     4400     TP3      H1       HW       0.417000       1.00800           0
     25131 TIP3     4400     TP3      H2       HW       0.417000       1.00800           0
     25132 TIP3     4401     TP3      O        OW      -0.834000       16.0000           0
     25133 TIP3     4401     TP3      H1       HW       0.417000       1.00800           0
     25134 TIP3     4401     TP3      H2       HW       0.417000       1.00800           0
     25135 TIP3     4402     TP3      O        OW      -0.834000       16.0000           0
     25136 TIP3     4402     TP3      H1       HW       0.417000       1.00800           0
     25137 TIP3     4402     TP3      H2       HW       0.417000       1.00800           0
     25138 TIP3     4403     TP3      O        OW      -0.834000       16.0000           0
     25139 TIP3     4403     TP3      H1       HW       0.417000       1.00800           0
     25140 TIP3     4403     TP3      H2       HW       0.417000       1.00800           0
     25141 TIP3     4404     TP3      O        OW      -0.834000       16.0000           0
     25142 TIP3     4404     TP3      H1       HW       0.417000       1.00800           0
     25143 TIP3     4404     TP3      H2       HW       0.417000       1.00800           0
     25144 TIP3     4405     TP3      O        OW      -0.834000       16.0000           0
     25145 TIP3     4405     TP3      H1       HW       0.417000       1.00800           0
     25146 TIP3     4405     TP3      H2       HW       0.417000       1.00800           0
     25147 TIP3     4406     TP3      O        OW      -0.834000       16.0000           0
     25148 TIP3     4406     TP3      H1       HW       0.417000       1.00800           0
     25149 TIP3     4406     TP3      H2       HW       0.417000       1.00800           0
     25150 TIP3     4407     TP3      O        OW      -0.834000       16.0000           0
     25151 TIP3     4407     TP3      H1       HW       0.417000       1.00800           0
     25152 TIP3     4407     TP3      H2       HW       0.417000       1.00800           0
     25153 TIP3     4408     TP3      O        OW      -0.834000       16.0000           0
     25154 TIP3     4408     TP3      H1       HW       0.417000       1.00800           0
     25155 TIP3     4408     TP3      H2       HW       0.417000       1.00800           0
     25156 TIP3     4409     TP3      O        OW      -0.834000       16.0000           0
     25157 TIP3     4409     TP3      H1       HW       0.417000       1.00800           0
     25158 TIP3     4409     TP3      H2       HW       0.417000       1.00800           0
     25159 TIP3     4410     TP3      O        OW      -0.834000       16.0000           0
     25160 TIP3     4410     TP3      H1       HW       0.417000       1.00800           0
     25161 TIP3     4410     TP3      H2       HW       0.417000       1.00800           0
     25162 TIP3     4411     TP3      O        OW      -0.834000       16.0000           0
     25163 TIP3     4411     TP3      H1       HW       0.417000       1.00800           0
     25164 TIP3     4411     TP3      H2       HW       0.417000       1.00800           0
     25165 TIP3     4412     TP3      O        OW      -0.834000       16.0000           0
     25166 TIP3     4412     TP3      H1       HW       0.417000       1.00800           0
     25167 TIP3     4412     TP3      H2       HW       0.417000       1.00800           0
     25168 TIP3     4413     TP3      O        OW      -0.834000       16.0000           0
     25169 TIP3     4413     TP3      H1       HW       0.417000       1.00800           0
     25170 TIP3     4413     TP3      H2       HW       0.417000       1.00800           0
     25171 TIP3     4414     TP3      O        OW      -0.834000       16.0000           0
     25172 TIP3     4414     TP3      H1       HW       0.417000       1.00800           0
     25173 TIP3     4414     TP3      H2       HW       0.417000       1.00800           0
     25174 TIP3     4415     TP3      O        OW      -0.834000       16.0000           0
     25175 TIP3     4415     TP3      H1       HW       0.417000       1.00800           0
     25176 TIP3     4415     TP3      H2       HW       0.417000       1.00800           0
     25177 TIP3     4416     TP3      O        OW      -0.834000       16.0000           0
     25178 TIP3     4416     TP3      H1       HW       0.417000       1.00800           0
     25179 TIP3     4416     TP3      H2       HW       0.417000       1.00800           0
     25180 TIP3     4417     TP3      O        OW      -0.834000       16.0000           0
     25181 TIP3     4417     TP3      H1       HW       0.417000       1.00800           0
     25182 TIP3     4417     TP3      H2       HW       0.417000       1.00800           0
     25183 TIP3     4418     TP3      O        OW      -0.834000       16.0000           0
     25184 TIP3     4418     TP3      H1       HW       0.417000       1.00800           0
     25185 TIP3     4418     TP3      H2       HW       0.417000       1.00800           0
     25186 TIP3     4419     TP3      O        OW      -0.834000       16.0000           0
     25187 TIP3     4419     TP3      H1       HW       0.417000       1.00800           0
     25188 TIP3     4419     TP3      H2       HW       0.417000       1.00800           0
     25189 TIP3     4420     TP3      O        OW      -0.834000       16.0000           0
     25190 TIP3     4420     TP3      H1       HW       0.417000       1.00800           0
     25191 TIP3     4420     TP3      H2       HW       0.417000       1.00800           0
     25192 TIP3     4421     TP3      O        OW      -0.834000       16.0000           0
     25193 TIP3     4421     TP3      H1       HW       0.417000       1.00800           0
     25194 TIP3     4421     TP3      H2       HW       0.417000       1.00800           0
     25195 TIP3     4422     TP3      O        OW      -0.834000       16.0000           0
     25196 TIP3     4422     TP3      H1       HW       0.417000       1.00800           0
     25197 TIP3     4422     TP3      H2       HW       0.417000       1.00800           0
     25198 TIP3     4423     TP3      O        OW      -0.834000       16.0000           0
     25199 TIP3     4423     TP3      H1       HW       0.417000       1.00800           0
     25200 TIP3     4423     TP3      H2       HW       0.417000       1.00800           0
     25201 TIP3     4424     TP3      O        OW      -0.834000       16.0000           0
     25202 TIP3     4424     TP3      H1       HW       0.417000       1.00800           0
     25203 TIP3     4424     TP3      H2       HW       0.417000       1.00800           0
     25204 TIP3     4425     TP3      O        OW      -0.834000       16.0000           0
     25205 TIP3     4425     TP3      H1       HW       0.417000       1.00800           0
     25206 TIP3     4425     TP3      H2       HW       0.417000       1.00800           0
     25207 TIP3     4426     TP3      O        OW      -0.834000       16.0000           0
     25208 TIP3     4426     TP3      H1       HW       0.417000       1.00800           0
     25209 TIP3     4426     TP3      H2       HW       0.417000       1.00800           0
     25210 TIP3     4427     TP3      O        OW      -0.834000       16.0000           0
     25211 TIP3     4427     TP3      H1       HW       0.417000       1.00800           0
     25212 TIP3     4427     TP3      H2       HW       0.417000       1.00800           0
     25213 TIP3     4428     TP3      O        OW      -0.834000       16.0000           0
     25214 TIP3     4428     TP3      H1       HW       0.417000       1.00800           0
     25215 TIP3     4428     TP3      H2       HW       0.417000       1.00800           0
     25216 TIP3     4429     TP3      O        OW      -0.834000       16.0000           0
     25217 TIP3     4429     TP3      H1       HW       0.417000       1.00800           0
     25218 TIP3     4429     TP3      H2       HW       0.417000       1.00800           0
     25219 TIP3     4430     TP3      O        OW      -0.834000       16.0000           0
     25220 TIP3     4430     TP3      H1       HW       0.417000       1.00800           0
     25221 TIP3     4430     TP3      H2       HW       0.417000       1.00800           0
     25222 TIP3     4431     TP3      O        OW      -0.834000       16.0000           0
     25223 TIP3     4431     TP3      H1       HW       0.417000       1.00800           0
     25224 TIP3     4431     TP3      H2       HW       0.417000       1.00800           0
     25225 TIP3     4432     TP3      O        OW      -0.834000       16.0000           0
     25226 TIP3     4432     TP3      H1       HW       0.417000       1.00800           0
     25227 TIP3     4432     TP3      H2       HW       0.417000       1.00800           0
     25228 TIP3     4433     TP3      O        OW      -0.834000       16.0000           0
     25229 TIP3     4433     TP3      H1       HW       0.417000       1.00800           0
     25230 TIP3     4433     TP3      H2       HW       0.417000       1.00800           0
     25231 TIP3     4434     TP3      O        OW      -0.834000       16.0000           0
     25232 TIP3     4434     TP3      H1       HW       0.417000       1.00800           0
     25233 TIP3     4434     TP3      H2       HW       0.417000       1.00800           0
     25234 TIP3     4435     TP3      O        OW      -0.834000       16.0000           0
     25235 TIP3     4435     TP3      H1       HW       0.417000       1.00800           0
     25236 TIP3     4435     TP3      H2       HW       0.417000       1.00800           0
     25237 TIP3     4436     TP3      O        OW      -0.834000       16.0000           0
     25238 TIP3     4436     TP3      H1       HW       0.417000       1.00800           0
     25239 TIP3     4436     TP3      H2       HW       0.417000       1.00800           0
     25240 TIP3     4437     TP3      O        OW      -0.834000       16.0000           0
     25241 TIP3     4437     TP3      H1       HW       0.417000       1.00800           0
     25242 TIP3     4437     TP3      H2       HW       0.417000       1.00800           0
     25243 TIP3     4438     TP3      O        OW      -0.834000       16.0000           0
     25244 TIP3     4438     TP3      H1       HW       0.417000       1.00800           0
     25245 TIP3     4438     TP3      H2       HW       0.417000       1.00800           0
     25246 TIP3     4439     TP3      O        OW      -0.834000       16.0000           0
     25247 TIP3     4439     TP3      H1       HW       0.417000       1.00800           0
     25248 TIP3     4439     TP3      H2       HW       0.417000       1.00800           0
     25249 TIP3     4440     TP3      O        OW      -0.834000       16.0000           0
     25250 TIP3     4440     TP3      H1       HW       0.417000       1.00800           0
     25251 TIP3     4440     TP3      H2       HW       0.417000       1.00800           0
     25252 TIP3     4441     TP3      O        OW      -0.834000       16.0000           0
     25253 TIP3     4441     TP3      H1       HW       0.417000       1.00800           0
     25254 TIP3     4441     TP3      H2       HW       0.417000       1.00800           0
     25255 TIP3     4442     TP3      O        OW      -0.834000       16.0000           0
     25256 TIP3     4442     TP3      H1       HW       0.417000       1.00800           0
     25257 TIP3     4442     TP3      H2       HW       0.417000       1.00800           0
     25258 TIP3     4443     TP3      O        OW      -0.834000       16.0000           0
     25259 TIP3     4443     TP3      H1       HW       0.417000       1.00800           0
     25260 TIP3     4443     TP3      H2       HW       0.417000       1.00800           0
     25261 TIP3     4444     TP3      O        OW      -0.834000       16.0000           0
     25262 TIP3     4444     TP3      H1       HW       0.417000       1.00800           0
     25263 TIP3     4444     TP3      H2       HW       0.417000       1.00800           0
     25264 TIP3     4445     TP3      O        OW      -0.834000       16.0000           0
     25265 TIP3     4445     TP3      H1       HW       0.417000       1.00800           0
     25266 TIP3     4445     TP3      H2       HW       0.417000       1.00800           0
     25267 TIP3     4446     TP3      O        OW      -0.834000       16.0000           0
     25268 TIP3     4446     TP3      H1       HW       0.417000       1.00800           0
     25269 TIP3     4446     TP3      H2       HW       0.417000       1.00800           0
     25270 TIP3     4447     TP3      O        OW      -0.834000       16.0000           0
     25271 TIP3     4447     TP3      H1       HW       0.417000       1.00800           0
     25272 TIP3     4447     TP3      H2       HW       0.417000       1.00800           0
     25273 TIP3     4448     TP3      O        OW      -0.834000       16.0000           0
     25274 TIP3     4448     TP3      H1       HW       0.417000       1.00800           0
     25275 TIP3     4448     TP3      H2       HW       0.417000       1.00800           0
     25276 TIP3     4449     TP3      O        OW      -0.834000       16.0000           0
     25277 TIP3     4449     TP3      H1       HW       0.417000       1.00800           0
     25278 TIP3     4449     TP3      H2       HW       0.417000       1.00800           0
     25279 TIP3     4450     TP3      O        OW      -0.834000       16.0000           0
     25280 TIP3     4450     TP3      H1       HW       0.417000       1.00800           0
     25281 TIP3     4450     TP3      H2       HW       0.417000       1.00800           0
     25282 TIP3     4451     TP3      O        OW      -0.834000       16.0000           0
     25283 TIP3     4451     TP3      H1       HW       0.417000       1.00800           0
     25284 TIP3     4451     TP3      H2       HW       0.417000       1.00800           0
     25285 TIP3     4452     TP3      O        OW      -0.834000       16.0000           0
     25286 TIP3     4452     TP3      H1       HW       0.417000       1.00800           0
     25287 TIP3     4452     TP3      H2       HW       0.417000       1.00800           0
     25288 TIP3     4453     TP3      O        OW      -0.834000       16.0000           0
     25289 TIP3     4453     TP3      H1       HW       0.417000       1.00800           0
     25290 TIP3     4453     TP3      H2       HW       0.417000       1.00800           0
     25291 TIP3     4454     TP3      O        OW      -0.834000       16.0000           0
     25292 TIP3     4454     TP3      H1       HW       0.417000       1.00800           0
     25293 TIP3     4454     TP3      H2       HW       0.417000       1.00800           0
     25294 TIP3     4455     TP3      O        OW      -0.834000       16.0000           0
     25295 TIP3     4455     TP3      H1       HW       0.417000       1.00800           0
     25296 TIP3     4455     TP3      H2       HW       0.417000       1.00800           0
     25297 TIP3     4456     TP3      O        OW      -0.834000       16.0000           0
     25298 TIP3     4456     TP3      H1       HW       0.417000       1.00800           0
     25299 TIP3     4456     TP3      H2       HW       0.417000       1.00800           0
     25300 TIP3     4457     TP3      O        OW      -0.834000       16.0000           0
     25301 TIP3     4457     TP3      H1       HW       0.417000       1.00800           0
     25302 TIP3     4457     TP3      H2       HW       0.417000       1.00800           0
     25303 TIP3     4458     TP3      O        OW      -0.834000       16.0000           0
     25304 TIP3     4458     TP3      H1       HW       0.417000       1.00800           0
     25305 TIP3     4458     TP3      H2       HW       0.417000       1.00800           0
     25306 TIP3     4459     TP3      O        OW      -0.834000       16.0000           0
     25307 TIP3     4459     TP3      H1       HW       0.417000       1.00800           0
     25308 TIP3     4459     TP3      H2       HW       0.417000       1.00800           0
     25309 TIP3     4460     TP3      O        OW      -0.834000       16.0000           0
     25310 TIP3     4460     TP3      H1       HW       0.417000       1.00800           0
     25311 TIP3     4460     TP3      H2       HW       0.417000       1.00800           0
     25312 TIP3     4461     TP3      O        OW      -0.834000       16.0000           0
     25313 TIP3     4461     TP3      H1       HW       0.417000       1.00800           0
     25314 TIP3     4461     TP3      H2       HW       0.417000       1.00800           0
     25315 TIP3     4462     TP3      O        OW      -0.834000       16.0000           0
     25316 TIP3     4462     TP3      H1       HW       0.417000       1.00800           0
     25317 TIP3     4462     TP3      H2       HW       0.417000       1.00800           0
     25318 TIP3     4463     TP3      O        OW      -0.834000       16.0000           0
     25319 TIP3     4463     TP3      H1       HW       0.417000       1.00800           0
     25320 TIP3     4463     TP3      H2       HW       0.417000       1.00800           0
     25321 TIP3     4464     TP3      O        OW      -0.834000       16.0000           0
     25322 TIP3     4464     TP3      H1       HW       0.417000       1.00800           0
     25323 TIP3     4464     TP3      H2       HW       0.417000       1.00800           0
     25324 TIP3     4465     TP3      O        OW      -0.834000       16.0000           0
     25325 TIP3     4465     TP3      H1       HW       0.417000       1.00800           0
     25326 TIP3     4465     TP3      H2       HW       0.417000       1.00800           0
     25327 TIP3     4466     TP3      O        OW      -0.834000       16.0000           0
     25328 TIP3     4466     TP3      H1       HW       0.417000       1.00800           0
     25329 TIP3     4466     TP3      H2       HW       0.417000       1.00800           0
     25330 TIP3     4467     TP3      O        OW      -0.834000       16.0000           0
     25331 TIP3     4467     TP3      H1       HW       0.417000       1.00800           0
     25332 TIP3     4467     TP3      H2       HW       0.417000       1.00800           0
     25333 TIP3     4468     TP3      O        OW      -0.834000       16.0000           0
     25334 TIP3     4468     TP3      H1       HW       0.417000       1.00800           0
     25335 TIP3     4468     TP3      H2       HW       0.417000       1.00800           0
     25336 TIP3     4469     TP3      O        OW      -0.834000       16.0000           0
     25337 TIP3     4469     TP3      H1       HW       0.417000       1.00800           0
     25338 TIP3     4469     TP3      H2       HW       0.417000       1.00800           0
     25339 TIP3     4470     TP3      O        OW      -0.834000       16.0000           0
     25340 TIP3     4470     TP3      H1       HW       0.417000       1.00800           0
     25341 TIP3     4470     TP3      H2       HW       0.417000       1.00800           0
     25342 TIP3     4471     TP3      O        OW      -0.834000       16.0000           0
     25343 TIP3     4471     TP3      H1       HW       0.417000       1.00800           0
     25344 TIP3     4471     TP3      H2       HW       0.417000       1.00800           0
     25345 TIP3     4472     TP3      O        OW      -0.834000       16.0000           0
     25346 TIP3     4472     TP3      H1       HW       0.417000       1.00800           0
     25347 TIP3     4472     TP3      H2       HW       0.417000       1.00800           0
     25348 TIP3     4473     TP3      O        OW      -0.834000       16.0000           0
     25349 TIP3     4473     TP3      H1       HW       0.417000       1.00800           0
     25350 TIP3     4473     TP3      H2       HW       0.417000       1.00800           0
     25351 TIP3     4474     TP3      O        OW      -0.834000       16.0000           0
     25352 TIP3     4474     TP3      H1       HW       0.417000       1.00800           0
     25353 TIP3     4474     TP3      H2       HW       0.417000       1.00800           0
     25354 TIP3     4475     TP3      O        OW      -0.834000       16.0000           0
     25355 TIP3     4475     TP3      H1       HW       0.417000       1.00800           0
     25356 TIP3     4475     TP3      H2       HW       0.417000       1.00800           0
     25357 TIP3     4476     TP3      O        OW      -0.834000       16.0000           0
     25358 TIP3     4476     TP3      H1       HW       0.417000       1.00800           0
     25359 TIP3     4476     TP3      H2       HW       0.417000       1.00800           0
     25360 TIP3     4477     TP3      O        OW      -0.834000       16.0000           0
     25361 TIP3     4477     TP3      H1       HW       0.417000       1.00800           0
     25362 TIP3     4477     TP3      H2       HW       0.417000       1.00800           0
     25363 TIP3     4478     TP3      O        OW      -0.834000       16.0000           0
     25364 TIP3     4478     TP3      H1       HW       0.417000       1.00800           0
     25365 TIP3     4478     TP3      H2       HW       0.417000       1.00800           0
     25366 TIP3     4479     TP3      O        OW      -0.834000       16.0000           0
     25367 TIP3     4479     TP3      H1       HW       0.417000       1.00800           0
     25368 TIP3     4479     TP3      H2       HW       0.417000       1.00800           0
     25369 TIP3     4480     TP3      O        OW      -0.834000       16.0000           0
     25370 TIP3     4480     TP3      H1       HW       0.417000       1.00800           0
     25371 TIP3     4480     TP3      H2       HW       0.417000       1.00800           0
     25372 TIP3     4481     TP3      O        OW      -0.834000       16.0000           0
     25373 TIP3     4481     TP3      H1       HW       0.417000       1.00800           0
     25374 TIP3     4481     TP3      H2       HW       0.417000       1.00800           0
     25375 TIP3     4482     TP3      O        OW      -0.834000       16.0000           0
     25376 TIP3     4482     TP3      H1       HW       0.417000       1.00800           0
     25377 TIP3     4482     TP3      H2       HW       0.417000       1.00800           0
     25378 TIP3     4483     TP3      O        OW      -0.834000       16.0000           0
     25379 TIP3     4483     TP3      H1       HW       0.417000       1.00800           0
     25380 TIP3     4483     TP3      H2       HW       0.417000       1.00800           0
     25381 TIP3     4484     TP3      O        OW      -0.834000       16.0000           0
     25382 TIP3     4484     TP3      H1       HW       0.417000       1.00800           0
     25383 TIP3     4484     TP3      H2       HW       0.417000       1.00800           0
     25384 TIP3     4485     TP3      O        OW      -0.834000       16.0000           0
     25385 TIP3     4485     TP3      H1       HW       0.417000       1.00800           0
     25386 TIP3     4485     TP3      H2       HW       0.417000       1.00800           0
     25387 TIP3     4486     TP3      O        OW      -0.834000       16.0000           0
     25388 TIP3     4486     TP3      H1       HW       0.417000       1.00800           0
     25389 TIP3     4486     TP3      H2       HW       0.417000       1.00800           0
     25390 TIP3     4487     TP3      O        OW      -0.834000       16.0000           0
     25391 TIP3     4487     TP3      H1       HW       0.417000       1.00800           0
     25392 TIP3     4487     TP3      H2       HW       0.417000       1.00800           0
     25393 TIP3     4488     TP3      O        OW      -0.834000       16.0000           0
     25394 TIP3     4488     TP3      H1       HW       0.417000       1.00800           0
     25395 TIP3     4488     TP3      H2       HW       0.417000       1.00800           0
     25396 TIP3     4489     TP3      O        OW      -0.834000       16.0000           0
     25397 TIP3     4489     TP3      H1       HW       0.417000       1.00800           0
     25398 TIP3     4489     TP3      H2       HW       0.417000       1.00800           0
     25399 TIP3     4490     TP3      O        OW      -0.834000       16.0000           0
     25400 TIP3     4490     TP3      H1       HW       0.417000       1.00800           0
     25401 TIP3     4490     TP3      H2       HW       0.417000       1.00800           0
     25402 TIP3     4491     TP3      O        OW      -0.834000       16.0000           0
     25403 TIP3     4491     TP3      H1       HW       0.417000       1.00800           0
     25404 TIP3     4491     TP3      H2       HW       0.417000       1.00800           0
     25405 TIP3     4492     TP3      O        OW      -0.834000       16.0000           0
     25406 TIP3     4492     TP3      H1       HW       0.417000       1.00800           0
     25407 TIP3     4492     TP3      H2       HW       0.417000       1.00800           0
     25408 TIP3     4493     TP3      O        OW      -0.834000       16.0000           0
     25409 TIP3     4493     TP3      H1       HW       0.417000       1.00800           0
     25410 TIP3     4493     TP3      H2       HW       0.417000       1.00800           0
     25411 TIP3     4494     TP3      O        OW      -0.834000       16.0000           0
     25412 TIP3     4494     TP3      H1       HW       0.417000       1.00800           0
     25413 TIP3     4494     TP3      H2       HW       0.417000       1.00800           0
     25414 TIP3     4495     TP3      O        OW      -0.834000       16.0000           0
     25415 TIP3     4495     TP3      H1       HW       0.417000       1.00800           0
     25416 TIP3     4495     TP3      H2       HW       0.417000       1.00800           0
     25417 TIP3     4496     TP3      O        OW      -0.834000       16.0000           0
     25418 TIP3     4496     TP3      H1       HW       0.417000       1.00800           0
     25419 TIP3     4496     TP3      H2       HW       0.417000       1.00800           0
     25420 TIP3     4497     TP3      O        OW      -0.834000       16.0000           0
     25421 TIP3     4497     TP3      H1       HW       0.417000       1.00800           0
     25422 TIP3     4497     TP3      H2       HW       0.417000       1.00800           0
     25423 TIP3     4498     TP3      O        OW      -0.834000       16.0000           0
     25424 TIP3     4498     TP3      H1       HW       0.417000       1.00800           0
     25425 TIP3     4498     TP3      H2       HW       0.417000       1.00800           0
     25426 TIP3     4499     TP3      O        OW      -0.834000       16.0000           0
     25427 TIP3     4499     TP3      H1       HW       0.417000       1.00800           0
     25428 TIP3     4499     TP3      H2       HW       0.417000       1.00800           0
     25429 TIP3     4500     TP3      O        OW      -0.834000       16.0000           0
     25430 TIP3     4500     TP3      H1       HW       0.417000       1.00800           0
     25431 TIP3     4500     TP3      H2       HW       0.417000       1.00800           0
     25432 TIP3     4501     TP3      O        OW      -0.834000       16.0000           0
     25433 TIP3     4501     TP3      H1       HW       0.417000       1.00800           0
     25434 TIP3     4501     TP3      H2       HW       0.417000       1.00800           0
     25435 TIP3     4502     TP3      O        OW      -0.834000       16.0000           0
     25436 TIP3     4502     TP3      H1       HW       0.417000       1.00800           0
     25437 TIP3     4502     TP3      H2       HW       0.417000       1.00800           0
     25438 TIP3     4503     TP3      O        OW      -0.834000       16.0000           0
     25439 TIP3     4503     TP3      H1       HW       0.417000       1.00800           0
     25440 TIP3     4503     TP3      H2       HW       0.417000       1.00800           0
     25441 TIP3     4504     TP3      O        OW      -0.834000       16.0000           0
     25442 TIP3     4504     TP3      H1       HW       0.417000       1.00800           0
     25443 TIP3     4504     TP3      H2       HW       0.417000       1.00800           0
     25444 TIP3     4505     TP3      O        OW      -0.834000       16.0000           0
     25445 TIP3     4505     TP3      H1       HW       0.417000       1.00800           0
     25446 TIP3     4505     TP3      H2       HW       0.417000       1.00800           0
     25447 TIP3     4506     TP3      O        OW      -0.834000       16.0000           0
     25448 TIP3     4506     TP3      H1       HW       0.417000       1.00800           0
     25449 TIP3     4506     TP3      H2       HW       0.417000       1.00800           0
     25450 TIP3     4507     TP3      O        OW      -0.834000       16.0000           0
     25451 TIP3     4507     TP3      H1       HW       0.417000       1.00800           0
     25452 TIP3     4507     TP3      H2       HW       0.417000       1.00800           0
     25453 TIP3     4508     TP3      O        OW      -0.834000       16.0000           0
     25454 TIP3     4508     TP3      H1       HW       0.417000       1.00800           0
     25455 TIP3     4508     TP3      H2       HW       0.417000       1.00800           0
     25456 TIP3     4509     TP3      O        OW      -0.834000       16.0000           0
     25457 TIP3     4509     TP3      H1       HW       0.417000       1.00800           0
     25458 TIP3     4509     TP3      H2       HW       0.417000       1.00800           0
     25459 TIP3     4510     TP3      O        OW      -0.834000       16.0000           0
     25460 TIP3     4510     TP3      H1       HW       0.417000       1.00800           0
     25461 TIP3     4510     TP3      H2       HW       0.417000       1.00800           0
     25462 TIP3     4511     TP3      O        OW      -0.834000       16.0000           0
     25463 TIP3     4511     TP3      H1       HW       0.417000       1.00800           0
     25464 TIP3     4511     TP3      H2       HW       0.417000       1.00800           0
     25465 TIP3     4512     TP3      O        OW      -0.834000       16.0000           0
     25466 TIP3     4512     TP3      H1       HW       0.417000       1.00800           0
     25467 TIP3     4512     TP3      H2       HW       0.417000       1.00800           0
     25468 TIP3     4513     TP3      O        OW      -0.834000       16.0000           0
     25469 TIP3     4513     TP3      H1       HW       0.417000       1.00800           0
     25470 TIP3     4513     TP3      H2       HW       0.417000       1.00800           0
     25471 TIP3     4514     TP3      O        OW      -0.834000       16.0000           0
     25472 TIP3     4514     TP3      H1       HW       0.417000       1.00800           0
     25473 TIP3     4514     TP3      H2       HW       0.417000       1.00800           0
     25474 TIP3     4515     TP3      O        OW      -0.834000       16.0000           0
     25475 TIP3     4515     TP3      H1       HW       0.417000       1.00800           0
     25476 TIP3     4515     TP3      H2       HW       0.417000       1.00800           0
     25477 TIP3     4516     TP3      O        OW      -0.834000       16.0000           0
     25478 TIP3     4516     TP3      H1       HW       0.417000       1.00800           0
     25479 TIP3     4516     TP3      H2       HW       0.417000       1.00800           0
     25480 TIP3     4517     TP3      O        OW      -0.834000       16.0000           0
     25481 TIP3     4517     TP3      H1       HW       0.417000       1.00800           0
     25482 TIP3     4517     TP3      H2       HW       0.417000       1.00800           0
     25483 TIP3     4518     TP3      O        OW      -0.834000       16.0000           0
     25484 TIP3     4518     TP3      H1       HW       0.417000       1.00800           0
     25485 TIP3     4518     TP3      H2       HW       0.417000       1.00800           0
     25486 TIP3     4519     TP3      O        OW      -0.834000       16.0000           0
     25487 TIP3     4519     TP3      H1       HW       0.417000       1.00800           0
     25488 TIP3     4519     TP3      H2       HW       0.417000       1.00800           0
     25489 TIP3     4520     TP3      O        OW      -0.834000       16.0000           0
     25490 TIP3     4520     TP3      H1       HW       0.417000       1.00800           0
     25491 TIP3     4520     TP3      H2       HW       0.417000       1.00800           0
     25492 TIP3     4521     TP3      O        OW      -0.834000       16.0000           0
     25493 TIP3     4521     TP3      H1       HW       0.417000       1.00800           0
     25494 TIP3     4521     TP3      H2       HW       0.417000       1.00800           0
     25495 TIP3     4522     TP3      O        OW      -0.834000       16.0000           0
     25496 TIP3     4522     TP3      H1       HW       0.417000       1.00800           0
     25497 TIP3     4522     TP3      H2       HW       0.417000       1.00800           0
     25498 TIP3     4523     TP3      O        OW      -0.834000       16.0000           0
     25499 TIP3     4523     TP3      H1       HW       0.417000       1.00800           0
     25500 TIP3     4523     TP3      H2       HW       0.417000       1.00800           0
     25501 TIP3     4524     TP3      O        OW      -0.834000       16.0000           0
     25502 TIP3     4524     TP3      H1       HW       0.417000       1.00800           0
     25503 TIP3     4524     TP3      H2       HW       0.417000       1.00800           0
     25504 TIP3     4525     TP3      O        OW      -0.834000       16.0000           0
     25505 TIP3     4525     TP3      H1       HW       0.417000       1.00800           0
     25506 TIP3     4525     TP3      H2       HW       0.417000       1.00800           0
     25507 TIP3     4526     TP3      O        OW      -0.834000       16.0000           0
     25508 TIP3     4526     TP3      H1       HW       0.417000       1.00800           0
     25509 TIP3     4526     TP3      H2       HW       0.417000       1.00800           0
     25510 TIP3     4527     TP3      O        OW      -0.834000       16.0000           0
     25511 TIP3     4527     TP3      H1       HW       0.417000       1.00800           0
     25512 TIP3     4527     TP3      H2       HW       0.417000       1.00800           0
     25513 TIP3     4528     TP3      O        OW      -0.834000       16.0000           0
     25514 TIP3     4528     TP3      H1       HW       0.417000       1.00800           0
     25515 TIP3     4528     TP3      H2       HW       0.417000       1.00800           0
     25516 TIP3     4529     TP3      O        OW      -0.834000       16.0000           0
     25517 TIP3     4529     TP3      H1       HW       0.417000       1.00800           0
     25518 TIP3     4529     TP3      H2       HW       0.417000       1.00800           0
     25519 TIP3     4530     TP3      O        OW      -0.834000       16.0000           0
     25520 TIP3     4530     TP3      H1       HW       0.417000       1.00800           0
     25521 TIP3     4530     TP3      H2       HW       0.417000       1.00800           0
     25522 TIP3     4531     TP3      O        OW      -0.834000       16.0000           0
     25523 TIP3     4531     TP3      H1       HW       0.417000       1.00800           0
     25524 TIP3     4531     TP3      H2       HW       0.417000       1.00800           0
     25525 TIP3     4532     TP3      O        OW      -0.834000       16.0000           0
     25526 TIP3     4532     TP3      H1       HW       0.417000       1.00800           0
     25527 TIP3     4532     TP3      H2       HW       0.417000       1.00800           0
     25528 TIP3     4533     TP3      O        OW      -0.834000       16.0000           0
     25529 TIP3     4533     TP3      H1       HW       0.417000       1.00800           0
     25530 TIP3     4533     TP3      H2       HW       0.417000       1.00800           0
     25531 TIP3     4534     TP3      O        OW      -0.834000       16.0000           0
     25532 TIP3     4534     TP3      H1       HW       0.417000       1.00800           0
     25533 TIP3     4534     TP3      H2       HW       0.417000       1.00800           0
     25534 TIP3     4535     TP3      O        OW      -0.834000       16.0000           0
     25535 TIP3     4535     TP3      H1       HW       0.417000       1.00800           0
     25536 TIP3     4535     TP3      H2       HW       0.417000       1.00800           0
     25537 TIP3     4536     TP3      O        OW      -0.834000       16.0000           0
     25538 TIP3     4536     TP3      H1       HW       0.417000       1.00800           0
     25539 TIP3     4536     TP3      H2       HW       0.417000       1.00800           0
     25540 TIP3     4537     TP3      O        OW      -0.834000       16.0000           0
     25541 TIP3     4537     TP3      H1       HW       0.417000       1.00800           0
     25542 TIP3     4537     TP3      H2       HW       0.417000       1.00800           0
     25543 TIP3     4538     TP3      O        OW      -0.834000       16.0000           0
     25544 TIP3     4538     TP3      H1       HW       0.417000       1.00800           0
     25545 TIP3     4538     TP3      H2       HW       0.417000       1.00800           0
     25546 TIP3     4539     TP3      O        OW      -0.834000       16.0000           0
     25547 TIP3     4539     TP3      H1       HW       0.417000       1.00800           0
     25548 TIP3     4539     TP3      H2       HW       0.417000       1.00800           0
     25549 TIP3     4540     TP3      O        OW      -0.834000       16.0000           0
     25550 TIP3     4540     TP3      H1       HW       0.417000       1.00800           0
     25551 TIP3     4540     TP3      H2       HW       0.417000       1.00800           0
     25552 TIP3     4541     TP3      O        OW      -0.834000       16.0000           0
     25553 TIP3     4541     TP3      H1       HW       0.417000       1.00800           0
     25554 TIP3     4541     TP3      H2       HW       0.417000       1.00800           0
     25555 TIP3     4542     TP3      O        OW      -0.834000       16.0000           0
     25556 TIP3     4542     TP3      H1       HW       0.417000       1.00800           0
     25557 TIP3     4542     TP3      H2       HW       0.417000       1.00800           0
     25558 TIP3     4543     TP3      O        OW      -0.834000       16.0000           0
     25559 TIP3     4543     TP3      H1       HW       0.417000       1.00800           0
     25560 TIP3     4543     TP3      H2       HW       0.417000       1.00800           0
     25561 TIP3     4544     TP3      O        OW      -0.834000       16.0000           0
     25562 TIP3     4544     TP3      H1       HW       0.417000       1.00800           0
     25563 TIP3     4544     TP3      H2       HW       0.417000       1.00800           0
     25564 TIP3     4545     TP3      O        OW      -0.834000       16.0000           0
     25565 TIP3     4545     TP3      H1       HW       0.417000       1.00800           0
     25566 TIP3     4545     TP3      H2       HW       0.417000       1.00800           0
     25567 TIP3     4546     TP3      O        OW      -0.834000       16.0000           0
     25568 TIP3     4546     TP3      H1       HW       0.417000       1.00800           0
     25569 TIP3     4546     TP3      H2       HW       0.417000       1.00800           0
     25570 TIP3     4547     TP3      O        OW      -0.834000       16.0000           0
     25571 TIP3     4547     TP3      H1       HW       0.417000       1.00800           0
     25572 TIP3     4547     TP3      H2       HW       0.417000       1.00800           0
     25573 TIP3     4548     TP3      O        OW      -0.834000       16.0000           0
     25574 TIP3     4548     TP3      H1       HW       0.417000       1.00800           0
     25575 TIP3     4548     TP3      H2       HW       0.417000       1.00800           0
     25576 TIP3     4549     TP3      O        OW      -0.834000       16.0000           0
     25577 TIP3     4549     TP3      H1       HW       0.417000       1.00800           0
     25578 TIP3     4549     TP3      H2       HW       0.417000       1.00800           0
     25579 TIP3     4550     TP3      O        OW      -0.834000       16.0000           0
     25580 TIP3     4550     TP3      H1       HW       0.417000       1.00800           0
     25581 TIP3     4550     TP3      H2       HW       0.417000       1.00800           0
     25582 TIP3     4551     TP3      O        OW      -0.834000       16.0000           0
     25583 TIP3     4551     TP3      H1       HW       0.417000       1.00800           0
     25584 TIP3     4551     TP3      H2       HW       0.417000       1.00800           0
     25585 TIP3     4552     TP3      O        OW      -0.834000       16.0000           0
     25586 TIP3     4552     TP3      H1       HW       0.417000       1.00800           0
     25587 TIP3     4552     TP3      H2       HW       0.417000       1.00800           0
     25588 TIP3     4553     TP3      O        OW      -0.834000       16.0000           0
     25589 TIP3     4553     TP3      H1       HW       0.417000       1.00800           0
     25590 TIP3     4553     TP3      H2       HW       0.417000       1.00800           0
     25591 TIP3     4554     TP3      O        OW      -0.834000       16.0000           0
     25592 TIP3     4554     TP3      H1       HW       0.417000       1.00800           0
     25593 TIP3     4554     TP3      H2       HW       0.417000       1.00800           0
     25594 TIP3     4555     TP3      O        OW      -0.834000       16.0000           0
     25595 TIP3     4555     TP3      H1       HW       0.417000       1.00800           0
     25596 TIP3     4555     TP3      H2       HW       0.417000       1.00800           0
     25597 TIP3     4556     TP3      O        OW      -0.834000       16.0000           0
     25598 TIP3     4556     TP3      H1       HW       0.417000       1.00800           0
     25599 TIP3     4556     TP3      H2       HW       0.417000       1.00800           0
     25600 TIP3     4557     TP3      O        OW      -0.834000       16.0000           0
     25601 TIP3     4557     TP3      H1       HW       0.417000       1.00800           0
     25602 TIP3     4557     TP3      H2       HW       0.417000       1.00800           0
     25603 TIP3     4558     TP3      O        OW      -0.834000       16.0000           0
     25604 TIP3     4558     TP3      H1       HW       0.417000       1.00800           0
     25605 TIP3     4558     TP3      H2       HW       0.417000       1.00800           0
     25606 TIP3     4559     TP3      O        OW      -0.834000       16.0000           0
     25607 TIP3     4559     TP3      H1       HW       0.417000       1.00800           0
     25608 TIP3     4559     TP3      H2       HW       0.417000       1.00800           0
     25609 TIP3     4560     TP3      O        OW      -0.834000       16.0000           0
     25610 TIP3     4560     TP3      H1       HW       0.417000       1.00800           0
     25611 TIP3     4560     TP3      H2       HW       0.417000       1.00800           0
     25612 TIP3     4561     TP3      O        OW      -0.834000       16.0000           0
     25613 TIP3     4561     TP3      H1       HW       0.417000       1.00800           0
     25614 TIP3     4561     TP3      H2       HW       0.417000       1.00800           0
     25615 TIP3     4562     TP3      O        OW      -0.834000       16.0000           0
     25616 TIP3     4562     TP3      H1       HW       0.417000       1.00800           0
     25617 TIP3     4562     TP3      H2       HW       0.417000       1.00800           0
     25618 TIP3     4563     TP3      O        OW      -0.834000       16.0000           0
     25619 TIP3     4563     TP3      H1       HW       0.417000       1.00800           0
     25620 TIP3     4563     TP3      H2       HW       0.417000       1.00800           0
     25621 TIP3     4564     TP3      O        OW      -0.834000       16.0000           0
     25622 TIP3     4564     TP3      H1       HW       0.417000       1.00800           0
     25623 TIP3     4564     TP3      H2       HW       0.417000       1.00800           0
     25624 TIP3     4565     TP3      O        OW      -0.834000       16.0000           0
     25625 TIP3     4565     TP3      H1       HW       0.417000       1.00800           0
     25626 TIP3     4565     TP3      H2       HW       0.417000       1.00800           0
     25627 TIP3     4566     TP3      O        OW      -0.834000       16.0000           0
     25628 TIP3     4566     TP3      H1       HW       0.417000       1.00800           0
     25629 TIP3     4566     TP3      H2       HW       0.417000       1.00800           0
     25630 TIP3     4567     TP3      O        OW      -0.834000       16.0000           0
     25631 TIP3     4567     TP3      H1       HW       0.417000       1.00800           0
     25632 TIP3     4567     TP3      H2       HW       0.417000       1.00800           0
     25633 TIP3     4568     TP3      O        OW      -0.834000       16.0000           0
     25634 TIP3     4568     TP3      H1       HW       0.417000       1.00800           0
     25635 TIP3     4568     TP3      H2       HW       0.417000       1.00800           0
     25636 TIP3     4569     TP3      O        OW      -0.834000       16.0000           0
     25637 TIP3     4569     TP3      H1       HW       0.417000       1.00800           0
     25638 TIP3     4569     TP3      H2       HW       0.417000       1.00800           0
     25639 TIP3     4570     TP3      O        OW      -0.834000       16.0000           0
     25640 TIP3     4570     TP3      H1       HW       0.417000       1.00800           0
     25641 TIP3     4570     TP3      H2       HW       0.417000       1.00800           0
     25642 TIP3     4571     TP3      O        OW      -0.834000       16.0000           0
     25643 TIP3     4571     TP3      H1       HW       0.417000       1.00800           0
     25644 TIP3     4571     TP3      H2       HW       0.417000       1.00800           0
     25645 TIP3     4572     TP3      O        OW      -0.834000       16.0000           0
     25646 TIP3     4572     TP3      H1       HW       0.417000       1.00800           0
     25647 TIP3     4572     TP3      H2       HW       0.417000       1.00800           0
     25648 TIP3     4573     TP3      O        OW      -0.834000       16.0000           0
     25649 TIP3     4573     TP3      H1       HW       0.417000       1.00800           0
     25650 TIP3     4573     TP3      H2       HW       0.417000       1.00800           0
     25651 TIP3     4574     TP3      O        OW      -0.834000       16.0000           0
     25652 TIP3     4574     TP3      H1       HW       0.417000       1.00800           0
     25653 TIP3     4574     TP3      H2       HW       0.417000       1.00800           0
     25654 TIP3     4575     TP3      O        OW      -0.834000       16.0000           0
     25655 TIP3     4575     TP3      H1       HW       0.417000       1.00800           0
     25656 TIP3     4575     TP3      H2       HW       0.417000       1.00800           0
     25657 TIP3     4576     TP3      O        OW      -0.834000       16.0000           0
     25658 TIP3     4576     TP3      H1       HW       0.417000       1.00800           0
     25659 TIP3     4576     TP3      H2       HW       0.417000       1.00800           0
     25660 TIP3     4577     TP3      O        OW      -0.834000       16.0000           0
     25661 TIP3     4577     TP3      H1       HW       0.417000       1.00800           0
     25662 TIP3     4577     TP3      H2       HW       0.417000       1.00800           0
     25663 TIP3     4578     TP3      O        OW      -0.834000       16.0000           0
     25664 TIP3     4578     TP3      H1       HW       0.417000       1.00800           0
     25665 TIP3     4578     TP3      H2       HW       0.417000       1.00800           0
     25666 TIP3     4579     TP3      O        OW      -0.834000       16.0000           0
     25667 TIP3     4579     TP3      H1       HW       0.417000       1.00800           0
     25668 TIP3     4579     TP3      H2       HW       0.417000       1.00800           0
     25669 TIP3     4580     TP3      O        OW      -0.834000       16.0000           0
     25670 TIP3     4580     TP3      H1       HW       0.417000       1.00800           0
     25671 TIP3     4580     TP3      H2       HW       0.417000       1.00800           0
     25672 TIP3     4581     TP3      O        OW      -0.834000       16.0000           0
     25673 TIP3     4581     TP3      H1       HW       0.417000       1.00800           0
     25674 TIP3     4581     TP3      H2       HW       0.417000       1.00800           0
     25675 TIP3     4582     TP3      O        OW      -0.834000       16.0000           0
     25676 TIP3     4582     TP3      H1       HW       0.417000       1.00800           0
     25677 TIP3     4582     TP3      H2       HW       0.417000       1.00800           0
     25678 TIP3     4583     TP3      O        OW      -0.834000       16.0000           0
     25679 TIP3     4583     TP3      H1       HW       0.417000       1.00800           0
     25680 TIP3     4583     TP3      H2       HW       0.417000       1.00800           0
     25681 TIP3     4584     TP3      O        OW      -0.834000       16.0000           0
     25682 TIP3     4584     TP3      H1       HW       0.417000       1.00800           0
     25683 TIP3     4584     TP3      H2       HW       0.417000       1.00800           0
     25684 TIP3     4585     TP3      O        OW      -0.834000       16.0000           0
     25685 TIP3     4585     TP3      H1       HW       0.417000       1.00800           0
     25686 TIP3     4585     TP3      H2       HW       0.417000       1.00800           0
     25687 TIP3     4586     TP3      O        OW      -0.834000       16.0000           0
     25688 TIP3     4586     TP3      H1       HW       0.417000       1.00800           0
     25689 TIP3     4586     TP3      H2       HW       0.417000       1.00800           0
     25690 TIP3     4587     TP3      O        OW      -0.834000       16.0000           0
     25691 TIP3     4587     TP3      H1       HW       0.417000       1.00800           0
     25692 TIP3     4587     TP3      H2       HW       0.417000       1.00800           0
     25693 TIP3     4588     TP3      O        OW      -0.834000       16.0000           0
     25694 TIP3     4588     TP3      H1       HW       0.417000       1.00800           0
     25695 TIP3     4588     TP3      H2       HW       0.417000       1.00800           0
     25696 TIP3     4589     TP3      O        OW      -0.834000       16.0000           0
     25697 TIP3     4589     TP3      H1       HW       0.417000       1.00800           0
     25698 TIP3     4589     TP3      H2       HW       0.417000       1.00800           0
     25699 TIP3     4590     TP3      O        OW      -0.834000       16.0000           0
     25700 TIP3     4590     TP3      H1       HW       0.417000       1.00800           0
     25701 TIP3     4590     TP3      H2       HW       0.417000       1.00800           0
     25702 TIP3     4591     TP3      O        OW      -0.834000       16.0000           0
     25703 TIP3     4591     TP3      H1       HW       0.417000       1.00800           0
     25704 TIP3     4591     TP3      H2       HW       0.417000       1.00800           0
     25705 TIP3     4592     TP3      O        OW      -0.834000       16.0000           0
     25706 TIP3     4592     TP3      H1       HW       0.417000       1.00800           0
     25707 TIP3     4592     TP3      H2       HW       0.417000       1.00800           0
     25708 TIP3     4593     TP3      O        OW      -0.834000       16.0000           0
     25709 TIP3     4593     TP3      H1       HW       0.417000       1.00800           0
     25710 TIP3     4593     TP3      H2       HW       0.417000       1.00800           0
     25711 TIP3     4594     TP3      O        OW      -0.834000       16.0000           0
     25712 TIP3     4594     TP3      H1       HW       0.417000       1.00800           0
     25713 TIP3     4594     TP3      H2       HW       0.417000       1.00800           0
     25714 TIP3     4595     TP3      O        OW      -0.834000       16.0000           0
     25715 TIP3     4595     TP3      H1       HW       0.417000       1.00800           0
     25716 TIP3     4595     TP3      H2       HW       0.417000       1.00800           0
     25717 TIP3     4596     TP3      O        OW      -0.834000       16.0000           0
     25718 TIP3     4596     TP3      H1       HW       0.417000       1.00800           0
     25719 TIP3     4596     TP3      H2       HW       0.417000       1.00800           0
     25720 TIP3     4597     TP3      O        OW      -0.834000       16.0000           0
     25721 TIP3     4597     TP3      H1       HW       0.417000       1.00800           0
     25722 TIP3     4597     TP3      H2       HW       0.417000       1.00800           0
     25723 TIP3     4598     TP3      O        OW      -0.834000       16.0000           0
     25724 TIP3     4598     TP3      H1       HW       0.417000       1.00800           0
     25725 TIP3     4598     TP3      H2       HW       0.417000       1.00800           0
     25726 TIP3     4599     TP3      O        OW      -0.834000       16.0000           0
     25727 TIP3     4599     TP3      H1       HW       0.417000       1.00800           0
     25728 TIP3     4599     TP3      H2       HW       0.417000       1.00800           0
     25729 TIP3     4600     TP3      O        OW      -0.834000       16.0000           0
     25730 TIP3     4600     TP3      H1       HW       0.417000       1.00800           0
     25731 TIP3     4600     TP3      H2       HW       0.417000       1.00800           0
     25732 TIP3     4601     TP3      O        OW      -0.834000       16.0000           0
     25733 TIP3     4601     TP3      H1       HW       0.417000       1.00800           0
     25734 TIP3     4601     TP3      H2       HW       0.417000       1.00800           0
     25735 TIP3     4602     TP3      O        OW      -0.834000       16.0000           0
     25736 TIP3     4602     TP3      H1       HW       0.417000       1.00800           0
     25737 TIP3     4602     TP3      H2       HW       0.417000       1.00800           0
     25738 TIP3     4603     TP3      O        OW      -0.834000       16.0000           0
     25739 TIP3     4603     TP3      H1       HW       0.417000       1.00800           0
     25740 TIP3     4603     TP3      H2       HW       0.417000       1.00800           0
     25741 TIP3     4604     TP3      O        OW      -0.834000       16.0000           0
     25742 TIP3     4604     TP3      H1       HW       0.417000       1.00800           0
     25743 TIP3     4604     TP3      H2       HW       0.417000       1.00800           0
     25744 TIP3     4605     TP3      O        OW      -0.834000       16.0000           0
     25745 TIP3     4605     TP3      H1       HW       0.417000       1.00800           0
     25746 TIP3     4605     TP3      H2       HW       0.417000       1.00800           0
     25747 TIP3     4606     TP3      O        OW      -0.834000       16.0000           0
     25748 TIP3     4606     TP3      H1       HW       0.417000       1.00800           0
     25749 TIP3     4606     TP3      H2       HW       0.417000       1.00800           0
     25750 TIP3     4607     TP3      O        OW      -0.834000       16.0000           0
     25751 TIP3     4607     TP3      H1       HW       0.417000       1.00800           0
     25752 TIP3     4607     TP3      H2       HW       0.417000       1.00800           0
     25753 TIP3     4608     TP3      O        OW      -0.834000       16.0000           0
     25754 TIP3     4608     TP3      H1       HW       0.417000       1.00800           0
     25755 TIP3     4608     TP3      H2       HW       0.417000       1.00800           0
     25756 TIP3     4609     TP3      O        OW      -0.834000       16.0000           0
     25757 TIP3     4609     TP3      H1       HW       0.417000       1.00800           0
     25758 TIP3     4609     TP3      H2       HW       0.417000       1.00800           0
     25759 TIP3     4610     TP3      O        OW      -0.834000       16.0000           0
     25760 TIP3     4610     TP3      H1       HW       0.417000       1.00800           0
     25761 TIP3     4610     TP3      H2       HW       0.417000       1.00800           0
     25762 TIP3     4611     TP3      O        OW      -0.834000       16.0000           0
     25763 TIP3     4611     TP3      H1       HW       0.417000       1.00800           0
     25764 TIP3     4611     TP3      H2       HW       0.417000       1.00800           0
     25765 TIP3     4612     TP3      O        OW      -0.834000       16.0000           0
     25766 TIP3     4612     TP3      H1       HW       0.417000       1.00800           0
     25767 TIP3     4612     TP3      H2       HW       0.417000       1.00800           0
     25768 TIP3     4613     TP3      O        OW      -0.834000       16.0000           0
     25769 TIP3     4613     TP3      H1       HW       0.417000       1.00800           0
     25770 TIP3     4613     TP3      H2       HW       0.417000       1.00800           0
     25771 TIP3     4614     TP3      O        OW      -0.834000       16.0000           0
     25772 TIP3     4614     TP3      H1       HW       0.417000       1.00800           0
     25773 TIP3     4614     TP3      H2       HW       0.417000       1.00800           0
     25774 TIP3     4615     TP3      O        OW      -0.834000       16.0000           0
     25775 TIP3     4615     TP3      H1       HW       0.417000       1.00800           0
     25776 TIP3     4615     TP3      H2       HW       0.417000       1.00800           0
     25777 TIP3     4616     TP3      O        OW      -0.834000       16.0000           0
     25778 TIP3     4616     TP3      H1       HW       0.417000       1.00800           0
     25779 TIP3     4616     TP3      H2       HW       0.417000       1.00800           0
     25780 TIP3     4617     TP3      O        OW      -0.834000       16.0000           0
     25781 TIP3     4617     TP3      H1       HW       0.417000       1.00800           0
     25782 TIP3     4617     TP3      H2       HW       0.417000       1.00800           0
     25783 TIP3     4618     TP3      O        OW      -0.834000       16.0000           0
     25784 TIP3     4618     TP3      H1       HW       0.417000       1.00800           0
     25785 TIP3     4618     TP3      H2       HW       0.417000       1.00800           0
     25786 TIP3     4619     TP3      O        OW      -0.834000       16.0000           0
     25787 TIP3     4619     TP3      H1       HW       0.417000       1.00800           0
     25788 TIP3     4619     TP3      H2       HW       0.417000       1.00800           0
     25789 TIP3     4620     TP3      O        OW      -0.834000       16.0000           0
     25790 TIP3     4620     TP3      H1       HW       0.417000       1.00800           0
     25791 TIP3     4620     TP3      H2       HW       0.417000       1.00800           0
     25792 TIP3     4621     TP3      O        OW      -0.834000       16.0000           0
     25793 TIP3     4621     TP3      H1       HW       0.417000       1.00800           0
     25794 TIP3     4621     TP3      H2       HW       0.417000       1.00800           0
     25795 TIP3     4622     TP3      O        OW      -0.834000       16.0000           0
     25796 TIP3     4622     TP3      H1       HW       0.417000       1.00800           0
     25797 TIP3     4622     TP3      H2       HW       0.417000       1.00800           0
     25798 TIP3     4623     TP3      O        OW      -0.834000       16.0000           0
     25799 TIP3     4623     TP3      H1       HW       0.417000       1.00800           0
     25800 TIP3     4623     TP3      H2       HW       0.417000       1.00800           0
     25801 TIP3     4624     TP3      O        OW      -0.834000       16.0000           0
     25802 TIP3     4624     TP3      H1       HW       0.417000       1.00800           0
     25803 TIP3     4624     TP3      H2       HW       0.417000       1.00800           0
     25804 TIP3     4625     TP3      O        OW      -0.834000       16.0000           0
     25805 TIP3     4625     TP3      H1       HW       0.417000       1.00800           0
     25806 TIP3     4625     TP3      H2       HW       0.417000       1.00800           0
     25807 TIP3     4626     TP3      O        OW      -0.834000       16.0000           0
     25808 TIP3     4626     TP3      H1       HW       0.417000       1.00800           0
     25809 TIP3     4626     TP3      H2       HW       0.417000       1.00800           0
     25810 TIP3     4627     TP3      O        OW      -0.834000       16.0000           0
     25811 TIP3     4627     TP3      H1       HW       0.417000       1.00800           0
     25812 TIP3     4627     TP3      H2       HW       0.417000       1.00800           0
     25813 TIP3     4628     TP3      O        OW      -0.834000       16.0000           0
     25814 TIP3     4628     TP3      H1       HW       0.417000       1.00800           0
     25815 TIP3     4628     TP3      H2       HW       0.417000       1.00800           0
     25816 TIP3     4629     TP3      O        OW      -0.834000       16.0000           0
     25817 TIP3     4629     TP3      H1       HW       0.417000       1.00800           0
     25818 TIP3     4629     TP3      H2       HW       0.417000       1.00800           0
     25819 TIP3     4630     TP3      O        OW      -0.834000       16.0000           0
     25820 TIP3     4630     TP3      H1       HW       0.417000       1.00800           0
     25821 TIP3     4630     TP3      H2       HW       0.417000       1.00800           0
     25822 TIP3     4631     TP3      O        OW      -0.834000       16.0000           0
     25823 TIP3     4631     TP3      H1       HW       0.417000       1.00800           0
     25824 TIP3     4631     TP3      H2       HW       0.417000       1.00800           0
     25825 TIP3     4632     TP3      O        OW      -0.834000       16.0000           0
     25826 TIP3     4632     TP3      H1       HW       0.417000       1.00800           0
     25827 TIP3     4632     TP3      H2       HW       0.417000       1.00800           0
     25828 TIP3     4633     TP3      O        OW      -0.834000       16.0000           0
     25829 TIP3     4633     TP3      H1       HW       0.417000       1.00800           0
     25830 TIP3     4633     TP3      H2       HW       0.417000       1.00800           0
     25831 TIP3     4634     TP3      O        OW      -0.834000       16.0000           0
     25832 TIP3     4634     TP3      H1       HW       0.417000       1.00800           0
     25833 TIP3     4634     TP3      H2       HW       0.417000       1.00800           0
     25834 TIP3     4635     TP3      O        OW      -0.834000       16.0000           0
     25835 TIP3     4635     TP3      H1       HW       0.417000       1.00800           0
     25836 TIP3     4635     TP3      H2       HW       0.417000       1.00800           0
     25837 TIP3     4636     TP3      O        OW      -0.834000       16.0000           0
     25838 TIP3     4636     TP3      H1       HW       0.417000       1.00800           0
     25839 TIP3     4636     TP3      H2       HW       0.417000       1.00800           0
     25840 TIP3     4637     TP3      O        OW      -0.834000       16.0000           0
     25841 TIP3     4637     TP3      H1       HW       0.417000       1.00800           0
     25842 TIP3     4637     TP3      H2       HW       0.417000       1.00800           0
     25843 TIP3     4638     TP3      O        OW      -0.834000       16.0000           0
     25844 TIP3     4638     TP3      H1       HW       0.417000       1.00800           0
     25845 TIP3     4638     TP3      H2       HW       0.417000       1.00800           0
     25846 TIP3     4639     TP3      O        OW      -0.834000       16.0000           0
     25847 TIP3     4639     TP3      H1       HW       0.417000       1.00800           0
     25848 TIP3     4639     TP3      H2       HW       0.417000       1.00800           0
     25849 TIP3     4640     TP3      O        OW      -0.834000       16.0000           0
     25850 TIP3     4640     TP3      H1       HW       0.417000       1.00800           0
     25851 TIP3     4640     TP3      H2       HW       0.417000       1.00800           0
     25852 TIP3     4641     TP3      O        OW      -0.834000       16.0000           0
     25853 TIP3     4641     TP3      H1       HW       0.417000       1.00800           0
     25854 TIP3     4641     TP3      H2       HW       0.417000       1.00800           0
     25855 TIP3     4642     TP3      O        OW      -0.834000       16.0000           0
     25856 TIP3     4642     TP3      H1       HW       0.417000       1.00800           0
     25857 TIP3     4642     TP3      H2       HW       0.417000       1.00800           0
     25858 TIP3     4643     TP3      O        OW      -0.834000       16.0000           0
     25859 TIP3     4643     TP3      H1       HW       0.417000       1.00800           0
     25860 TIP3     4643     TP3      H2       HW       0.417000       1.00800           0
     25861 TIP3     4644     TP3      O        OW      -0.834000       16.0000           0
     25862 TIP3     4644     TP3      H1       HW       0.417000       1.00800           0
     25863 TIP3     4644     TP3      H2       HW       0.417000       1.00800           0
     25864 TIP3     4645     TP3      O        OW      -0.834000       16.0000           0
     25865 TIP3     4645     TP3      H1       HW       0.417000       1.00800           0
     25866 TIP3     4645     TP3      H2       HW       0.417000       1.00800           0
     25867 TIP3     4646     TP3      O        OW      -0.834000       16.0000           0
     25868 TIP3     4646     TP3      H1       HW       0.417000       1.00800           0
     25869 TIP3     4646     TP3      H2       HW       0.417000       1.00800           0
     25870 TIP3     4647     TP3      O        OW      -0.834000       16.0000           0
     25871 TIP3     4647     TP3      H1       HW       0.417000       1.00800           0
     25872 TIP3     4647     TP3      H2       HW       0.417000       1.00800           0
     25873 TIP3     4648     TP3      O        OW      -0.834000       16.0000           0
     25874 TIP3     4648     TP3      H1       HW       0.417000       1.00800           0
     25875 TIP3     4648     TP3      H2       HW       0.417000       1.00800           0
     25876 TIP3     4649     TP3      O        OW      -0.834000       16.0000           0
     25877 TIP3     4649     TP3      H1       HW       0.417000       1.00800           0
     25878 TIP3     4649     TP3      H2       HW       0.417000       1.00800           0
     25879 TIP3     4650     TP3      O        OW      -0.834000       16.0000           0
     25880 TIP3     4650     TP3      H1       HW       0.417000       1.00800           0
     25881 TIP3     4650     TP3      H2       HW       0.417000       1.00800           0
     25882 TIP3     4651     TP3      O        OW      -0.834000       16.0000           0
     25883 TIP3     4651     TP3      H1       HW       0.417000       1.00800           0
     25884 TIP3     4651     TP3      H2       HW       0.417000       1.00800           0
     25885 TIP3     4652     TP3      O        OW      -0.834000       16.0000           0
     25886 TIP3     4652     TP3      H1       HW       0.417000       1.00800           0
     25887 TIP3     4652     TP3      H2       HW       0.417000       1.00800           0
     25888 TIP3     4653     TP3      O        OW      -0.834000       16.0000           0
     25889 TIP3     4653     TP3      H1       HW       0.417000       1.00800           0
     25890 TIP3     4653     TP3      H2       HW       0.417000       1.00800           0
     25891 TIP3     4654     TP3      O        OW      -0.834000       16.0000           0
     25892 TIP3     4654     TP3      H1       HW       0.417000       1.00800           0
     25893 TIP3     4654     TP3      H2       HW       0.417000       1.00800           0
     25894 TIP3     4655     TP3      O        OW      -0.834000       16.0000           0
     25895 TIP3     4655     TP3      H1       HW       0.417000       1.00800           0
     25896 TIP3     4655     TP3      H2       HW       0.417000       1.00800           0
     25897 TIP3     4656     TP3      O        OW      -0.834000       16.0000           0
     25898 TIP3     4656     TP3      H1       HW       0.417000       1.00800           0
     25899 TIP3     4656     TP3      H2       HW       0.417000       1.00800           0
     25900 TIP3     4657     TP3      O        OW      -0.834000       16.0000           0
     25901 TIP3     4657     TP3      H1       HW       0.417000       1.00800           0
     25902 TIP3     4657     TP3      H2       HW       0.417000       1.00800           0
     25903 TIP3     4658     TP3      O        OW      -0.834000       16.0000           0
     25904 TIP3     4658     TP3      H1       HW       0.417000       1.00800           0
     25905 TIP3     4658     TP3      H2       HW       0.417000       1.00800           0
     25906 TIP3     4659     TP3      O        OW      -0.834000       16.0000           0
     25907 TIP3     4659     TP3      H1       HW       0.417000       1.00800           0
     25908 TIP3     4659     TP3      H2       HW       0.417000       1.00800           0
     25909 TIP3     4660     TP3      O        OW      -0.834000       16.0000           0
     25910 TIP3     4660     TP3      H1       HW       0.417000       1.00800           0
     25911 TIP3     4660     TP3      H2       HW       0.417000       1.00800           0
     25912 TIP3     4661     TP3      O        OW      -0.834000       16.0000           0
     25913 TIP3     4661     TP3      H1       HW       0.417000       1.00800           0
     25914 TIP3     4661     TP3      H2       HW       0.417000       1.00800           0
     25915 TIP3     4662     TP3      O        OW      -0.834000       16.0000           0
     25916 TIP3     4662     TP3      H1       HW       0.417000       1.00800           0
     25917 TIP3     4662     TP3      H2       HW       0.417000       1.00800           0
     25918 TIP3     4663     TP3      O        OW      -0.834000       16.0000           0
     25919 TIP3     4663     TP3      H1       HW       0.417000       1.00800           0
     25920 TIP3     4663     TP3      H2       HW       0.417000       1.00800           0
     25921 TIP3     4664     TP3      O        OW      -0.834000       16.0000           0
     25922 TIP3     4664     TP3      H1       HW       0.417000       1.00800           0
     25923 TIP3     4664     TP3      H2       HW       0.417000       1.00800           0
     25924 TIP3     4665     TP3      O        OW      -0.834000       16.0000           0
     25925 TIP3     4665     TP3      H1       HW       0.417000       1.00800           0
     25926 TIP3     4665     TP3      H2       HW       0.417000       1.00800           0
     25927 TIP3     4666     TP3      O        OW      -0.834000       16.0000           0
     25928 TIP3     4666     TP3      H1       HW       0.417000       1.00800           0
     25929 TIP3     4666     TP3      H2       HW       0.417000       1.00800           0
     25930 TIP3     4667     TP3      O        OW      -0.834000       16.0000           0
     25931 TIP3     4667     TP3      H1       HW       0.417000       1.00800           0
     25932 TIP3     4667     TP3      H2       HW       0.417000       1.00800           0
     25933 TIP3     4668     TP3      O        OW      -0.834000       16.0000           0
     25934 TIP3     4668     TP3      H1       HW       0.417000       1.00800           0
     25935 TIP3     4668     TP3      H2       HW       0.417000       1.00800           0
     25936 TIP3     4669     TP3      O        OW      -0.834000       16.0000           0
     25937 TIP3     4669     TP3      H1       HW       0.417000       1.00800           0
     25938 TIP3     4669     TP3      H2       HW       0.417000       1.00800           0
     25939 TIP3     4670     TP3      O        OW      -0.834000       16.0000           0
     25940 TIP3     4670     TP3      H1       HW       0.417000       1.00800           0
     25941 TIP3     4670     TP3      H2       HW       0.417000       1.00800           0
     25942 TIP3     4671     TP3      O        OW      -0.834000       16.0000           0
     25943 TIP3     4671     TP3      H1       HW       0.417000       1.00800           0
     25944 TIP3     4671     TP3      H2       HW       0.417000       1.00800           0
     25945 TIP3     4672     TP3      O        OW      -0.834000       16.0000           0
     25946 TIP3     4672     TP3      H1       HW       0.417000       1.00800           0
     25947 TIP3     4672     TP3      H2       HW       0.417000       1.00800           0
     25948 TIP3     4673     TP3      O        OW      -0.834000       16.0000           0
     25949 TIP3     4673     TP3      H1       HW       0.417000       1.00800           0
     25950 TIP3     4673     TP3      H2       HW       0.417000       1.00800           0
     25951 TIP3     4674     TP3      O        OW      -0.834000       16.0000           0
     25952 TIP3     4674     TP3      H1       HW       0.417000       1.00800           0
     25953 TIP3     4674     TP3      H2       HW       0.417000       1.00800           0
     25954 TIP3     4675     TP3      O        OW      -0.834000       16.0000           0
     25955 TIP3     4675     TP3      H1       HW       0.417000       1.00800           0
     25956 TIP3     4675     TP3      H2       HW       0.417000       1.00800           0
     25957 TIP3     4676     TP3      O        OW      -0.834000       16.0000           0
     25958 TIP3     4676     TP3      H1       HW       0.417000       1.00800           0
     25959 TIP3     4676     TP3      H2       HW       0.417000       1.00800           0
     25960 TIP3     4677     TP3      O        OW      -0.834000       16.0000           0
     25961 TIP3     4677     TP3      H1       HW       0.417000       1.00800           0
     25962 TIP3     4677     TP3      H2       HW       0.417000       1.00800           0
     25963 TIP3     4678     TP3      O        OW      -0.834000       16.0000           0
     25964 TIP3     4678     TP3      H1       HW       0.417000       1.00800           0
     25965 TIP3     4678     TP3      H2       HW       0.417000       1.00800           0
     25966 TIP3     4679     TP3      O        OW      -0.834000       16.0000           0
     25967 TIP3     4679     TP3      H1       HW       0.417000       1.00800           0
     25968 TIP3     4679     TP3      H2       HW       0.417000       1.00800           0
     25969 TIP3     4680     TP3      O        OW      -0.834000       16.0000           0
     25970 TIP3     4680     TP3      H1       HW       0.417000       1.00800           0
     25971 TIP3     4680     TP3      H2       HW       0.417000       1.00800           0
     25972 TIP3     4681     TP3      O        OW      -0.834000       16.0000           0
     25973 TIP3     4681     TP3      H1       HW       0.417000       1.00800           0
     25974 TIP3     4681     TP3      H2       HW       0.417000       1.00800           0
     25975 TIP3     4682     TP3      O        OW      -0.834000       16.0000           0
     25976 TIP3     4682     TP3      H1       HW       0.417000       1.00800           0
     25977 TIP3     4682     TP3      H2       HW       0.417000       1.00800           0
     25978 TIP3     4683     TP3      O        OW      -0.834000       16.0000           0
     25979 TIP3     4683     TP3      H1       HW       0.417000       1.00800           0
     25980 TIP3     4683     TP3      H2       HW       0.417000       1.00800           0
     25981 TIP3     4684     TP3      O        OW      -0.834000       16.0000           0
     25982 TIP3     4684     TP3      H1       HW       0.417000       1.00800           0
     25983 TIP3     4684     TP3      H2       HW       0.417000       1.00800           0
     25984 TIP3     4685     TP3      O        OW      -0.834000       16.0000           0
     25985 TIP3     4685     TP3      H1       HW       0.417000       1.00800           0
     25986 TIP3     4685     TP3      H2       HW       0.417000       1.00800           0
     25987 TIP3     4686     TP3      O        OW      -0.834000       16.0000           0
     25988 TIP3     4686     TP3      H1       HW       0.417000       1.00800           0
     25989 TIP3     4686     TP3      H2       HW       0.417000       1.00800           0
     25990 TIP3     4687     TP3      O        OW      -0.834000       16.0000           0
     25991 TIP3     4687     TP3      H1       HW       0.417000       1.00800           0
     25992 TIP3     4687     TP3      H2       HW       0.417000       1.00800           0
     25993 TIP3     4688     TP3      O        OW      -0.834000       16.0000           0
     25994 TIP3     4688     TP3      H1       HW       0.417000       1.00800           0
     25995 TIP3     4688     TP3      H2       HW       0.417000       1.00800           0
     25996 TIP3     4689     TP3      O        OW      -0.834000       16.0000           0
     25997 TIP3     4689     TP3      H1       HW       0.417000       1.00800           0
     25998 TIP3     4689     TP3      H2       HW       0.417000       1.00800           0
     25999 TIP3     4690     TP3      O        OW      -0.834000       16.0000           0
     26000 TIP3     4690     TP3      H1       HW       0.417000       1.00800           0
     26001 TIP3     4690     TP3      H2       HW       0.417000       1.00800           0
     26002 TIP3     4691     TP3      O        OW      -0.834000       16.0000           0
     26003 TIP3     4691     TP3      H1       HW       0.417000       1.00800           0
     26004 TIP3     4691     TP3      H2       HW       0.417000       1.00800           0
     26005 TIP3     4692     TP3      O        OW      -0.834000       16.0000           0
     26006 TIP3     4692     TP3      H1       HW       0.417000       1.00800           0
     26007 TIP3     4692     TP3      H2       HW       0.417000       1.00800           0
     26008 TIP3     4693     TP3      O        OW      -0.834000       16.0000           0
     26009 TIP3     4693     TP3      H1       HW       0.417000       1.00800           0
     26010 TIP3     4693     TP3      H2       HW       0.417000       1.00800           0
     26011 TIP3     4694     TP3      O        OW      -0.834000       16.0000           0
     26012 TIP3     4694     TP3      H1       HW       0.417000       1.00800           0
     26013 TIP3     4694     TP3      H2       HW       0.417000       1.00800           0
     26014 TIP3     4695     TP3      O        OW      -0.834000       16.0000           0
     26015 TIP3     4695     TP3      H1       HW       0.417000       1.00800           0
     26016 TIP3     4695     TP3      H2       HW       0.417000       1.00800           0
     26017 TIP3     4696     TP3      O        OW      -0.834000       16.0000           0
     26018 TIP3     4696     TP3      H1       HW       0.417000       1.00800           0
     26019 TIP3     4696     TP3      H2       HW       0.417000       1.00800           0
     26020 TIP3     4697     TP3      O        OW      -0.834000       16.0000           0
     26021 TIP3     4697     TP3      H1       HW       0.417000       1.00800           0
     26022 TIP3     4697     TP3      H2       HW       0.417000       1.00800           0
     26023 TIP3     4698     TP3      O        OW      -0.834000       16.0000           0
     26024 TIP3     4698     TP3      H1       HW       0.417000       1.00800           0
     26025 TIP3     4698     TP3      H2       HW       0.417000       1.00800           0
     26026 TIP3     4699     TP3      O        OW      -0.834000       16.0000           0
     26027 TIP3     4699     TP3      H1       HW       0.417000       1.00800           0
     26028 TIP3     4699     TP3      H2       HW       0.417000       1.00800           0
     26029 TIP3     4700     TP3      O        OW      -0.834000       16.0000           0
     26030 TIP3     4700     TP3      H1       HW       0.417000       1.00800           0
     26031 TIP3     4700     TP3      H2       HW       0.417000       1.00800           0
     26032 TIP3     4701     TP3      O        OW      -0.834000       16.0000           0
     26033 TIP3     4701     TP3      H1       HW       0.417000       1.00800           0
     26034 TIP3     4701     TP3      H2       HW       0.417000       1.00800           0
     26035 TIP3     4702     TP3      O        OW      -0.834000       16.0000           0
     26036 TIP3     4702     TP3      H1       HW       0.417000       1.00800           0
     26037 TIP3     4702     TP3      H2       HW       0.417000       1.00800           0
     26038 TIP3     4703     TP3      O        OW      -0.834000       16.0000           0
     26039 TIP3     4703     TP3      H1       HW       0.417000       1.00800           0
     26040 TIP3     4703     TP3      H2       HW       0.417000       1.00800           0
     26041 TIP3     4704     TP3      O        OW      -0.834000       16.0000           0
     26042 TIP3     4704     TP3      H1       HW       0.417000       1.00800           0
     26043 TIP3     4704     TP3      H2       HW       0.417000       1.00800           0
     26044 TIP3     4705     TP3      O        OW      -0.834000       16.0000           0
     26045 TIP3     4705     TP3      H1       HW       0.417000       1.00800           0
     26046 TIP3     4705     TP3      H2       HW       0.417000       1.00800           0
     26047 TIP3     4706     TP3      O        OW      -0.834000       16.0000           0
     26048 TIP3     4706     TP3      H1       HW       0.417000       1.00800           0
     26049 TIP3     4706     TP3      H2       HW       0.417000       1.00800           0
     26050 TIP3     4707     TP3      O        OW      -0.834000       16.0000           0
     26051 TIP3     4707     TP3      H1       HW       0.417000       1.00800           0
     26052 TIP3     4707     TP3      H2       HW       0.417000       1.00800           0
     26053 TIP3     4708     TP3      O        OW      -0.834000       16.0000           0
     26054 TIP3     4708     TP3      H1       HW       0.417000       1.00800           0
     26055 TIP3     4708     TP3      H2       HW       0.417000       1.00800           0
     26056 TIP3     4709     TP3      O        OW      -0.834000       16.0000           0
     26057 TIP3     4709     TP3      H1       HW       0.417000       1.00800           0
     26058 TIP3     4709     TP3      H2       HW       0.417000       1.00800           0
     26059 TIP3     4710     TP3      O        OW      -0.834000       16.0000           0
     26060 TIP3     4710     TP3      H1       HW       0.417000       1.00800           0
     26061 TIP3     4710     TP3      H2       HW       0.417000       1.00800           0
     26062 TIP3     4711     TP3      O        OW      -0.834000       16.0000           0
     26063 TIP3     4711     TP3      H1       HW       0.417000       1.00800           0
     26064 TIP3     4711     TP3      H2       HW       0.417000       1.00800           0
     26065 TIP3     4712     TP3      O        OW      -0.834000       16.0000           0
     26066 TIP3     4712     TP3      H1       HW       0.417000       1.00800           0
     26067 TIP3     4712     TP3      H2       HW       0.417000       1.00800           0
     26068 TIP3     4713     TP3      O        OW      -0.834000       16.0000           0
     26069 TIP3     4713     TP3      H1       HW       0.417000       1.00800           0
     26070 TIP3     4713     TP3      H2       HW       0.417000       1.00800           0
     26071 TIP3     4714     TP3      O        OW      -0.834000       16.0000           0
     26072 TIP3     4714     TP3      H1       HW       0.417000       1.00800           0
     26073 TIP3     4714     TP3      H2       HW       0.417000       1.00800           0
     26074 TIP3     4715     TP3      O        OW      -0.834000       16.0000           0
     26075 TIP3     4715     TP3      H1       HW       0.417000       1.00800           0
     26076 TIP3     4715     TP3      H2       HW       0.417000       1.00800           0
     26077 TIP3     4716     TP3      O        OW      -0.834000       16.0000           0
     26078 TIP3     4716     TP3      H1       HW       0.417000       1.00800           0
     26079 TIP3     4716     TP3      H2       HW       0.417000       1.00800           0
     26080 TIP3     4717     TP3      O        OW      -0.834000       16.0000           0
     26081 TIP3     4717     TP3      H1       HW       0.417000       1.00800           0
     26082 TIP3     4717     TP3      H2       HW       0.417000       1.00800           0
     26083 TIP3     4718     TP3      O        OW      -0.834000       16.0000           0
     26084 TIP3     4718     TP3      H1       HW       0.417000       1.00800           0
     26085 TIP3     4718     TP3      H2       HW       0.417000       1.00800           0
     26086 TIP3     4719     TP3      O        OW      -0.834000       16.0000           0
     26087 TIP3     4719     TP3      H1       HW       0.417000       1.00800           0
     26088 TIP3     4719     TP3      H2       HW       0.417000       1.00800           0
     26089 TIP3     4720     TP3      O        OW      -0.834000       16.0000           0
     26090 TIP3     4720     TP3      H1       HW       0.417000       1.00800           0
     26091 TIP3     4720     TP3      H2       HW       0.417000       1.00800           0
     26092 TIP3     4721     TP3      O        OW      -0.834000       16.0000           0
     26093 TIP3     4721     TP3      H1       HW       0.417000       1.00800           0
     26094 TIP3     4721     TP3      H2       HW       0.417000       1.00800           0
     26095 TIP3     4722     TP3      O        OW      -0.834000       16.0000           0
     26096 TIP3     4722     TP3      H1       HW       0.417000       1.00800           0
     26097 TIP3     4722     TP3      H2       HW       0.417000       1.00800           0
     26098 TIP3     4723     TP3      O        OW      -0.834000       16.0000           0
     26099 TIP3     4723     TP3      H1       HW       0.417000       1.00800           0
     26100 TIP3     4723     TP3      H2       HW       0.417000       1.00800           0
     26101 TIP3     4724     TP3      O        OW      -0.834000       16.0000           0
     26102 TIP3     4724     TP3      H1       HW       0.417000       1.00800           0
     26103 TIP3     4724     TP3      H2       HW       0.417000       1.00800           0
     26104 TIP3     4725     TP3      O        OW      -0.834000       16.0000           0
     26105 TIP3     4725     TP3      H1       HW       0.417000       1.00800           0
     26106 TIP3     4725     TP3      H2       HW       0.417000       1.00800           0
     26107 TIP3     4726     TP3      O        OW      -0.834000       16.0000           0
     26108 TIP3     4726     TP3      H1       HW       0.417000       1.00800           0
     26109 TIP3     4726     TP3      H2       HW       0.417000       1.00800           0
     26110 TIP3     4727     TP3      O        OW      -0.834000       16.0000           0
     26111 TIP3     4727     TP3      H1       HW       0.417000       1.00800           0
     26112 TIP3     4727     TP3      H2       HW       0.417000       1.00800           0
     26113 TIP3     4728     TP3      O        OW      -0.834000       16.0000           0
     26114 TIP3     4728     TP3      H1       HW       0.417000       1.00800           0
     26115 TIP3     4728     TP3      H2       HW       0.417000       1.00800           0
     26116 TIP3     4729     TP3      O        OW      -0.834000       16.0000           0
     26117 TIP3     4729     TP3      H1       HW       0.417000       1.00800           0
     26118 TIP3     4729     TP3      H2       HW       0.417000       1.00800           0
     26119 TIP3     4730     TP3      O        OW      -0.834000       16.0000           0
     26120 TIP3     4730     TP3      H1       HW       0.417000       1.00800           0
     26121 TIP3     4730     TP3      H2       HW       0.417000       1.00800           0
     26122 TIP3     4731     TP3      O        OW      -0.834000       16.0000           0
     26123 TIP3     4731     TP3      H1       HW       0.417000       1.00800           0
     26124 TIP3     4731     TP3      H2       HW       0.417000       1.00800           0
     26125 TIP3     4732     TP3      O        OW      -0.834000       16.0000           0
     26126 TIP3     4732     TP3      H1       HW       0.417000       1.00800           0
     26127 TIP3     4732     TP3      H2       HW       0.417000       1.00800           0
     26128 TIP3     4733     TP3      O        OW      -0.834000       16.0000           0
     26129 TIP3     4733     TP3      H1       HW       0.417000       1.00800           0
     26130 TIP3     4733     TP3      H2       HW       0.417000       1.00800           0
     26131 TIP3     4734     TP3      O        OW      -0.834000       16.0000           0
     26132 TIP3     4734     TP3      H1       HW       0.417000       1.00800           0
     26133 TIP3     4734     TP3      H2       HW       0.417000       1.00800           0
     26134 TIP3     4735     TP3      O        OW      -0.834000       16.0000           0
     26135 TIP3     4735     TP3      H1       HW       0.417000       1.00800           0
     26136 TIP3     4735     TP3      H2       HW       0.417000       1.00800           0
     26137 TIP3     4736     TP3      O        OW      -0.834000       16.0000           0
     26138 TIP3     4736     TP3      H1       HW       0.417000       1.00800           0
     26139 TIP3     4736     TP3      H2       HW       0.417000       1.00800           0
     26140 TIP3     4737     TP3      O        OW      -0.834000       16.0000           0
     26141 TIP3     4737     TP3      H1       HW       0.417000       1.00800           0
     26142 TIP3     4737     TP3      H2       HW       0.417000       1.00800           0
     26143 TIP3     4738     TP3      O        OW      -0.834000       16.0000           0
     26144 TIP3     4738     TP3      H1       HW       0.417000       1.00800           0
     26145 TIP3     4738     TP3      H2       HW       0.417000       1.00800           0
     26146 TIP3     4739     TP3      O        OW      -0.834000       16.0000           0
     26147 TIP3     4739     TP3      H1       HW       0.417000       1.00800           0
     26148 TIP3     4739     TP3      H2       HW       0.417000       1.00800           0
     26149 TIP3     4740     TP3      O        OW      -0.834000       16.0000           0
     26150 TIP3     4740     TP3      H1       HW       0.417000       1.00800           0
     26151 TIP3     4740     TP3      H2       HW       0.417000       1.00800           0
     26152 TIP3     4741     TP3      O        OW      -0.834000       16.0000           0
     26153 TIP3     4741     TP3      H1       HW       0.417000       1.00800           0
     26154 TIP3     4741     TP3      H2       HW       0.417000       1.00800           0
     26155 TIP3     4742     TP3      O        OW      -0.834000       16.0000           0
     26156 TIP3     4742     TP3      H1       HW       0.417000       1.00800           0
     26157 TIP3     4742     TP3      H2       HW       0.417000       1.00800           0
     26158 TIP3     4743     TP3      O        OW      -0.834000       16.0000           0
     26159 TIP3     4743     TP3      H1       HW       0.417000       1.00800           0
     26160 TIP3     4743     TP3      H2       HW       0.417000       1.00800           0
     26161 TIP3     4744     TP3      O        OW      -0.834000       16.0000           0
     26162 TIP3     4744     TP3      H1       HW       0.417000       1.00800           0
     26163 TIP3     4744     TP3      H2       HW       0.417000       1.00800           0
     26164 TIP3     4745     TP3      O        OW      -0.834000       16.0000           0
     26165 TIP3     4745     TP3      H1       HW       0.417000       1.00800           0
     26166 TIP3     4745     TP3      H2       HW       0.417000       1.00800           0
     26167 TIP3     4746     TP3      O        OW      -0.834000       16.0000           0
     26168 TIP3     4746     TP3      H1       HW       0.417000       1.00800           0
     26169 TIP3     4746     TP3      H2       HW       0.417000       1.00800           0
     26170 TIP3     4747     TP3      O        OW      -0.834000       16.0000           0
     26171 TIP3     4747     TP3      H1       HW       0.417000       1.00800           0
     26172 TIP3     4747     TP3      H2       HW       0.417000       1.00800           0
     26173 TIP3     4748     TP3      O        OW      -0.834000       16.0000           0
     26174 TIP3     4748     TP3      H1       HW       0.417000       1.00800           0
     26175 TIP3     4748     TP3      H2       HW       0.417000       1.00800           0
     26176 TIP3     4749     TP3      O        OW      -0.834000       16.0000           0
     26177 TIP3     4749     TP3      H1       HW       0.417000       1.00800           0
     26178 TIP3     4749     TP3      H2       HW       0.417000       1.00800           0
     26179 TIP3     4750     TP3      O        OW      -0.834000       16.0000           0
     26180 TIP3     4750     TP3      H1       HW       0.417000       1.00800           0
     26181 TIP3     4750     TP3      H2       HW       0.417000       1.00800           0
     26182 TIP3     4751     TP3      O        OW      -0.834000       16.0000           0
     26183 TIP3     4751     TP3      H1       HW       0.417000       1.00800           0
     26184 TIP3     4751     TP3      H2       HW       0.417000       1.00800           0
     26185 TIP3     4752     TP3      O        OW      -0.834000       16.0000           0
     26186 TIP3     4752     TP3      H1       HW       0.417000       1.00800           0
     26187 TIP3     4752     TP3      H2       HW       0.417000       1.00800           0
     26188 TIP3     4753     TP3      O        OW      -0.834000       16.0000           0
     26189 TIP3     4753     TP3      H1       HW       0.417000       1.00800           0
     26190 TIP3     4753     TP3      H2       HW       0.417000       1.00800           0
     26191 TIP3     4754     TP3      O        OW      -0.834000       16.0000           0
     26192 TIP3     4754     TP3      H1       HW       0.417000       1.00800           0
     26193 TIP3     4754     TP3      H2       HW       0.417000       1.00800           0
     26194 TIP3     4755     TP3      O        OW      -0.834000       16.0000           0
     26195 TIP3     4755     TP3      H1       HW       0.417000       1.00800           0
     26196 TIP3     4755     TP3      H2       HW       0.417000       1.00800           0
     26197 TIP3     4756     TP3      O        OW      -0.834000       16.0000           0
     26198 TIP3     4756     TP3      H1       HW       0.417000       1.00800           0
     26199 TIP3     4756     TP3      H2       HW       0.417000       1.00800           0
     26200 TIP3     4757     TP3      O        OW      -0.834000       16.0000           0
     26201 TIP3     4757     TP3      H1       HW       0.417000       1.00800           0
     26202 TIP3     4757     TP3      H2       HW       0.417000       1.00800           0
     26203 TIP3     4758     TP3      O        OW      -0.834000       16.0000           0
     26204 TIP3     4758     TP3      H1       HW       0.417000       1.00800           0
     26205 TIP3     4758     TP3      H2       HW       0.417000       1.00800           0
     26206 TIP3     4759     TP3      O        OW      -0.834000       16.0000           0
     26207 TIP3     4759     TP3      H1       HW       0.417000       1.00800           0
     26208 TIP3     4759     TP3      H2       HW       0.417000       1.00800           0
     26209 TIP3     4760     TP3      O        OW      -0.834000       16.0000           0
     26210 TIP3     4760     TP3      H1       HW       0.417000       1.00800           0
     26211 TIP3     4760     TP3      H2       HW       0.417000       1.00800           0
     26212 TIP3     4761     TP3      O        OW      -0.834000       16.0000           0
     26213 TIP3     4761     TP3      H1       HW       0.417000       1.00800           0
     26214 TIP3     4761     TP3      H2       HW       0.417000       1.00800           0
     26215 TIP3     4762     TP3      O        OW      -0.834000       16.0000           0
     26216 TIP3     4762     TP3      H1       HW       0.417000       1.00800           0
     26217 TIP3     4762     TP3      H2       HW       0.417000       1.00800           0
     26218 TIP3     4763     TP3      O        OW      -0.834000       16.0000           0
     26219 TIP3     4763     TP3      H1       HW       0.417000       1.00800           0
     26220 TIP3     4763     TP3      H2       HW       0.417000       1.00800           0
     26221 TIP3     4764     TP3      O        OW      -0.834000       16.0000           0
     26222 TIP3     4764     TP3      H1       HW       0.417000       1.00800           0
     26223 TIP3     4764     TP3      H2       HW       0.417000       1.00800           0
     26224 TIP3     4765     TP3      O        OW      -0.834000       16.0000           0
     26225 TIP3     4765     TP3      H1       HW       0.417000       1.00800           0
     26226 TIP3     4765     TP3      H2       HW       0.417000       1.00800           0
     26227 TIP3     4766     TP3      O        OW      -0.834000       16.0000           0
     26228 TIP3     4766     TP3      H1       HW       0.417000       1.00800           0
     26229 TIP3     4766     TP3      H2       HW       0.417000       1.00800           0
     26230 TIP3     4767     TP3      O        OW      -0.834000       16.0000           0
     26231 TIP3     4767     TP3      H1       HW       0.417000       1.00800           0
     26232 TIP3     4767     TP3      H2       HW       0.417000       1.00800           0
     26233 TIP3     4768     TP3      O        OW      -0.834000       16.0000           0
     26234 TIP3     4768     TP3      H1       HW       0.417000       1.00800           0
     26235 TIP3     4768     TP3      H2       HW       0.417000       1.00800           0
     26236 TIP3     4769     TP3      O        OW      -0.834000       16.0000           0
     26237 TIP3     4769     TP3      H1       HW       0.417000       1.00800           0
     26238 TIP3     4769     TP3      H2       HW       0.417000       1.00800           0
     26239 TIP3     4770     TP3      O        OW      -0.834000       16.0000           0
     26240 TIP3     4770     TP3      H1       HW       0.417000       1.00800           0
     26241 TIP3     4770     TP3      H2       HW       0.417000       1.00800           0
     26242 TIP3     4771     TP3      O        OW      -0.834000       16.0000           0
     26243 TIP3     4771     TP3      H1       HW       0.417000       1.00800           0
     26244 TIP3     4771     TP3      H2       HW       0.417000       1.00800           0
     26245 TIP3     4772     TP3      O        OW      -0.834000       16.0000           0
     26246 TIP3     4772     TP3      H1       HW       0.417000       1.00800           0
     26247 TIP3     4772     TP3      H2       HW       0.417000       1.00800           0
     26248 TIP3     4773     TP3      O        OW      -0.834000       16.0000           0
     26249 TIP3     4773     TP3      H1       HW       0.417000       1.00800           0
     26250 TIP3     4773     TP3      H2       HW       0.417000       1.00800           0
     26251 TIP3     4774     TP3      O        OW      -0.834000       16.0000           0
     26252 TIP3     4774     TP3      H1       HW       0.417000       1.00800           0
     26253 TIP3     4774     TP3      H2       HW       0.417000       1.00800           0
     26254 TIP3     4775     TP3      O        OW      -0.834000       16.0000           0
     26255 TIP3     4775     TP3      H1       HW       0.417000       1.00800           0
     26256 TIP3     4775     TP3      H2       HW       0.417000       1.00800           0
     26257 TIP3     4776     TP3      O        OW      -0.834000       16.0000           0
     26258 TIP3     4776     TP3      H1       HW       0.417000       1.00800           0
     26259 TIP3     4776     TP3      H2       HW       0.417000       1.00800           0
     26260 TIP3     4777     TP3      O        OW      -0.834000       16.0000           0
     26261 TIP3     4777     TP3      H1       HW       0.417000       1.00800           0
     26262 TIP3     4777     TP3      H2       HW       0.417000       1.00800           0
     26263 TIP3     4778     TP3      O        OW      -0.834000       16.0000           0
     26264 TIP3     4778     TP3      H1       HW       0.417000       1.00800           0
     26265 TIP3     4778     TP3      H2       HW       0.417000       1.00800           0
     26266 TIP3     4779     TP3      O        OW      -0.834000       16.0000           0
     26267 TIP3     4779     TP3      H1       HW       0.417000       1.00800           0
     26268 TIP3     4779     TP3      H2       HW       0.417000       1.00800           0
     26269 TIP3     4780     TP3      O        OW      -0.834000       16.0000           0
     26270 TIP3     4780     TP3      H1       HW       0.417000       1.00800           0
     26271 TIP3     4780     TP3      H2       HW       0.417000       1.00800           0
     26272 TIP3     4781     TP3      O        OW      -0.834000       16.0000           0
     26273 TIP3     4781     TP3      H1       HW       0.417000       1.00800           0
     26274 TIP3     4781     TP3      H2       HW       0.417000       1.00800           0
     26275 TIP3     4782     TP3      O        OW      -0.834000       16.0000           0
     26276 TIP3     4782     TP3      H1       HW       0.417000       1.00800           0
     26277 TIP3     4782     TP3      H2       HW       0.417000       1.00800           0
     26278 TIP3     4783     TP3      O        OW      -0.834000       16.0000           0
     26279 TIP3     4783     TP3      H1       HW       0.417000       1.00800           0
     26280 TIP3     4783     TP3      H2       HW       0.417000       1.00800           0
     26281 TIP3     4784     TP3      O        OW      -0.834000       16.0000           0
     26282 TIP3     4784     TP3      H1       HW       0.417000       1.00800           0
     26283 TIP3     4784     TP3      H2       HW       0.417000       1.00800           0
     26284 TIP3     4785     TP3      O        OW      -0.834000       16.0000           0
     26285 TIP3     4785     TP3      H1       HW       0.417000       1.00800           0
     26286 TIP3     4785     TP3      H2       HW       0.417000       1.00800           0
     26287 TIP3     4786     TP3      O        OW      -0.834000       16.0000           0
     26288 TIP3     4786     TP3      H1       HW       0.417000       1.00800           0
     26289 TIP3     4786     TP3      H2       HW       0.417000       1.00800           0
     26290 TIP3     4787     TP3      O        OW      -0.834000       16.0000           0
     26291 TIP3     4787     TP3      H1       HW       0.417000       1.00800           0
     26292 TIP3     4787     TP3      H2       HW       0.417000       1.00800           0
     26293 TIP3     4788     TP3      O        OW      -0.834000       16.0000           0
     26294 TIP3     4788     TP3      H1       HW       0.417000       1.00800           0
     26295 TIP3     4788     TP3      H2       HW       0.417000       1.00800           0
     26296 TIP3     4789     TP3      O        OW      -0.834000       16.0000           0
     26297 TIP3     4789     TP3      H1       HW       0.417000       1.00800           0
     26298 TIP3     4789     TP3      H2       HW       0.417000       1.00800           0
     26299 TIP3     4790     TP3      O        OW      -0.834000       16.0000           0
     26300 TIP3     4790     TP3      H1       HW       0.417000       1.00800           0
     26301 TIP3     4790     TP3      H2       HW       0.417000       1.00800           0
     26302 TIP3     4791     TP3      O        OW      -0.834000       16.0000           0
     26303 TIP3     4791     TP3      H1       HW       0.417000       1.00800           0
     26304 TIP3     4791     TP3      H2       HW       0.417000       1.00800           0
     26305 TIP3     4792     TP3      O        OW      -0.834000       16.0000           0
     26306 TIP3     4792     TP3      H1       HW       0.417000       1.00800           0
     26307 TIP3     4792     TP3      H2       HW       0.417000       1.00800           0
     26308 TIP3     4793     TP3      O        OW      -0.834000       16.0000           0
     26309 TIP3     4793     TP3      H1       HW       0.417000       1.00800           0
     26310 TIP3     4793     TP3      H2       HW       0.417000       1.00800           0
     26311 TIP3     4794     TP3      O        OW      -0.834000       16.0000           0
     26312 TIP3     4794     TP3      H1       HW       0.417000       1.00800           0
     26313 TIP3     4794     TP3      H2       HW       0.417000       1.00800           0
     26314 TIP3     4795     TP3      O        OW      -0.834000       16.0000           0
     26315 TIP3     4795     TP3      H1       HW       0.417000       1.00800           0
     26316 TIP3     4795     TP3      H2       HW       0.417000       1.00800           0
     26317 TIP3     4796     TP3      O        OW      -0.834000       16.0000           0
     26318 TIP3     4796     TP3      H1       HW       0.417000       1.00800           0
     26319 TIP3     4796     TP3      H2       HW       0.417000       1.00800           0
     26320 TIP3     4797     TP3      O        OW      -0.834000       16.0000           0
     26321 TIP3     4797     TP3      H1       HW       0.417000       1.00800           0
     26322 TIP3     4797     TP3      H2       HW       0.417000       1.00800           0
     26323 TIP3     4798     TP3      O        OW      -0.834000       16.0000           0
     26324 TIP3     4798     TP3      H1       HW       0.417000       1.00800           0
     26325 TIP3     4798     TP3      H2       HW       0.417000       1.00800           0
     26326 TIP3     4799     TP3      O        OW      -0.834000       16.0000           0
     26327 TIP3     4799     TP3      H1       HW       0.417000       1.00800           0
     26328 TIP3     4799     TP3      H2       HW       0.417000       1.00800           0
     26329 TIP3     4800     TP3      O        OW      -0.834000       16.0000           0
     26330 TIP3     4800     TP3      H1       HW       0.417000       1.00800           0
     26331 TIP3     4800     TP3      H2       HW       0.417000       1.00800           0
     26332 TIP3     4801     TP3      O        OW      -0.834000       16.0000           0
     26333 TIP3     4801     TP3      H1       HW       0.417000       1.00800           0
     26334 TIP3     4801     TP3      H2       HW       0.417000       1.00800           0
     26335 TIP3     4802     TP3      O        OW      -0.834000       16.0000           0
     26336 TIP3     4802     TP3      H1       HW       0.417000       1.00800           0
     26337 TIP3     4802     TP3      H2       HW       0.417000       1.00800           0
     26338 TIP3     4803     TP3      O        OW      -0.834000       16.0000           0
     26339 TIP3     4803     TP3      H1       HW       0.417000       1.00800           0
     26340 TIP3     4803     TP3      H2       HW       0.417000       1.00800           0
     26341 TIP3     4804     TP3      O        OW      -0.834000       16.0000           0
     26342 TIP3     4804     TP3      H1       HW       0.417000       1.00800           0
     26343 TIP3     4804     TP3      H2       HW       0.417000       1.00800           0
     26344 TIP3     4805     TP3      O        OW      -0.834000       16.0000           0
     26345 TIP3     4805     TP3      H1       HW       0.417000       1.00800           0
     26346 TIP3     4805     TP3      H2       HW       0.417000       1.00800           0
     26347 TIP3     4806     TP3      O        OW      -0.834000       16.0000           0
     26348 TIP3     4806     TP3      H1       HW       0.417000       1.00800           0
     26349 TIP3     4806     TP3      H2       HW       0.417000       1.00800           0
     26350 TIP3     4807     TP3      O        OW      -0.834000       16.0000           0
     26351 TIP3     4807     TP3      H1       HW       0.417000       1.00800           0
     26352 TIP3     4807     TP3      H2       HW       0.417000       1.00800           0
     26353 TIP3     4808     TP3      O        OW      -0.834000       16.0000           0
     26354 TIP3     4808     TP3      H1       HW       0.417000       1.00800           0
     26355 TIP3     4808     TP3      H2       HW       0.417000       1.00800           0
     26356 TIP3     4809     TP3      O        OW      -0.834000       16.0000           0
     26357 TIP3     4809     TP3      H1       HW       0.417000       1.00800           0
     26358 TIP3     4809     TP3      H2       HW       0.417000       1.00800           0
     26359 TIP3     4810     TP3      O        OW      -0.834000       16.0000           0
     26360 TIP3     4810     TP3      H1       HW       0.417000       1.00800           0
     26361 TIP3     4810     TP3      H2       HW       0.417000       1.00800           0
     26362 TIP3     4811     TP3      O        OW      -0.834000       16.0000           0
     26363 TIP3     4811     TP3      H1       HW       0.417000       1.00800           0
     26364 TIP3     4811     TP3      H2       HW       0.417000       1.00800           0
     26365 TIP3     4812     TP3      O        OW      -0.834000       16.0000           0
     26366 TIP3     4812     TP3      H1       HW       0.417000       1.00800           0
     26367 TIP3     4812     TP3      H2       HW       0.417000       1.00800           0
     26368 TIP3     4813     TP3      O        OW      -0.834000       16.0000           0
     26369 TIP3     4813     TP3      H1       HW       0.417000       1.00800           0
     26370 TIP3     4813     TP3      H2       HW       0.417000       1.00800           0
     26371 TIP3     4814     TP3      O        OW      -0.834000       16.0000           0
     26372 TIP3     4814     TP3      H1       HW       0.417000       1.00800           0
     26373 TIP3     4814     TP3      H2       HW       0.417000       1.00800           0
     26374 TIP3     4815     TP3      O        OW      -0.834000       16.0000           0
     26375 TIP3     4815     TP3      H1       HW       0.417000       1.00800           0
     26376 TIP3     4815     TP3      H2       HW       0.417000       1.00800           0
     26377 TIP3     4816     TP3      O        OW      -0.834000       16.0000           0
     26378 TIP3     4816     TP3      H1       HW       0.417000       1.00800           0
     26379 TIP3     4816     TP3      H2       HW       0.417000       1.00800           0
     26380 TIP3     4817     TP3      O        OW      -0.834000       16.0000           0
     26381 TIP3     4817     TP3      H1       HW       0.417000       1.00800           0
     26382 TIP3     4817     TP3      H2       HW       0.417000       1.00800           0
     26383 TIP3     4818     TP3      O        OW      -0.834000       16.0000           0
     26384 TIP3     4818     TP3      H1       HW       0.417000       1.00800           0
     26385 TIP3     4818     TP3      H2       HW       0.417000       1.00800           0
     26386 TIP3     4819     TP3      O        OW      -0.834000       16.0000           0
     26387 TIP3     4819     TP3      H1       HW       0.417000       1.00800           0
     26388 TIP3     4819     TP3      H2       HW       0.417000       1.00800           0
     26389 TIP3     4820     TP3      O        OW      -0.834000       16.0000           0
     26390 TIP3     4820     TP3      H1       HW       0.417000       1.00800           0
     26391 TIP3     4820     TP3      H2       HW       0.417000       1.00800           0
     26392 TIP3     4821     TP3      O        OW      -0.834000       16.0000           0
     26393 TIP3     4821     TP3      H1       HW       0.417000       1.00800           0
     26394 TIP3     4821     TP3      H2       HW       0.417000       1.00800           0
     26395 TIP3     4822     TP3      O        OW      -0.834000       16.0000           0
     26396 TIP3     4822     TP3      H1       HW       0.417000       1.00800           0
     26397 TIP3     4822     TP3      H2       HW       0.417000       1.00800           0
     26398 TIP3     4823     TP3      O        OW      -0.834000       16.0000           0
     26399 TIP3     4823     TP3      H1       HW       0.417000       1.00800           0
     26400 TIP3     4823     TP3      H2       HW       0.417000       1.00800           0
     26401 TIP3     4824     TP3      O        OW      -0.834000       16.0000           0
     26402 TIP3     4824     TP3      H1       HW       0.417000       1.00800           0
     26403 TIP3     4824     TP3      H2       HW       0.417000       1.00800           0
     26404 TIP3     4825     TP3      O        OW      -0.834000       16.0000           0
     26405 TIP3     4825     TP3      H1       HW       0.417000       1.00800           0
     26406 TIP3     4825     TP3      H2       HW       0.417000       1.00800           0
     26407 TIP3     4826     TP3      O        OW      -0.834000       16.0000           0
     26408 TIP3     4826     TP3      H1       HW       0.417000       1.00800           0
     26409 TIP3     4826     TP3      H2       HW       0.417000       1.00800           0
     26410 TIP3     4827     TP3      O        OW      -0.834000       16.0000           0
     26411 TIP3     4827     TP3      H1       HW       0.417000       1.00800           0
     26412 TIP3     4827     TP3      H2       HW       0.417000       1.00800           0
     26413 TIP3     4828     TP3      O        OW      -0.834000       16.0000           0
     26414 TIP3     4828     TP3      H1       HW       0.417000       1.00800           0
     26415 TIP3     4828     TP3      H2       HW       0.417000       1.00800           0
     26416 TIP3     4829     TP3      O        OW      -0.834000       16.0000           0
     26417 TIP3     4829     TP3      H1       HW       0.417000       1.00800           0
     26418 TIP3     4829     TP3      H2       HW       0.417000       1.00800           0
     26419 TIP3     4830     TP3      O        OW      -0.834000       16.0000           0
     26420 TIP3     4830     TP3      H1       HW       0.417000       1.00800           0
     26421 TIP3     4830     TP3      H2       HW       0.417000       1.00800           0
     26422 TIP3     4831     TP3      O        OW      -0.834000       16.0000           0
     26423 TIP3     4831     TP3      H1       HW       0.417000       1.00800           0
     26424 TIP3     4831     TP3      H2       HW       0.417000       1.00800           0
     26425 TIP3     4832     TP3      O        OW      -0.834000       16.0000           0
     26426 TIP3     4832     TP3      H1       HW       0.417000       1.00800           0
     26427 TIP3     4832     TP3      H2       HW       0.417000       1.00800           0
     26428 TIP3     4833     TP3      O        OW      -0.834000       16.0000           0
     26429 TIP3     4833     TP3      H1       HW       0.417000       1.00800           0
     26430 TIP3     4833     TP3      H2       HW       0.417000       1.00800           0
     26431 TIP3     4834     TP3      O        OW      -0.834000       16.0000           0
     26432 TIP3     4834     TP3      H1       HW       0.417000       1.00800           0
     26433 TIP3     4834     TP3      H2       HW       0.417000       1.00800           0
     26434 TIP3     4835     TP3      O        OW      -0.834000       16.0000           0
     26435 TIP3     4835     TP3      H1       HW       0.417000       1.00800           0
     26436 TIP3     4835     TP3      H2       HW       0.417000       1.00800           0
     26437 TIP3     4836     TP3      O        OW      -0.834000       16.0000           0
     26438 TIP3     4836     TP3      H1       HW       0.417000       1.00800           0
     26439 TIP3     4836     TP3      H2       HW       0.417000       1.00800           0
     26440 TIP3     4837     TP3      O        OW      -0.834000       16.0000           0
     26441 TIP3     4837     TP3      H1       HW       0.417000       1.00800           0
     26442 TIP3     4837     TP3      H2       HW       0.417000       1.00800           0
     26443 TIP3     4838     TP3      O        OW      -0.834000       16.0000           0
     26444 TIP3     4838     TP3      H1       HW       0.417000       1.00800           0
     26445 TIP3     4838     TP3      H2       HW       0.417000       1.00800           0
     26446 TIP3     4839     TP3      O        OW      -0.834000       16.0000           0
     26447 TIP3     4839     TP3      H1       HW       0.417000       1.00800           0
     26448 TIP3     4839     TP3      H2       HW       0.417000       1.00800           0
     26449 TIP3     4840     TP3      O        OW      -0.834000       16.0000           0
     26450 TIP3     4840     TP3      H1       HW       0.417000       1.00800           0
     26451 TIP3     4840     TP3      H2       HW       0.417000       1.00800           0
     26452 TIP3     4841     TP3      O        OW      -0.834000       16.0000           0
     26453 TIP3     4841     TP3      H1       HW       0.417000       1.00800           0
     26454 TIP3     4841     TP3      H2       HW       0.417000       1.00800           0
     26455 TIP3     4842     TP3      O        OW      -0.834000       16.0000           0
     26456 TIP3     4842     TP3      H1       HW       0.417000       1.00800           0
     26457 TIP3     4842     TP3      H2       HW       0.417000       1.00800           0
     26458 TIP3     4843     TP3      O        OW      -0.834000       16.0000           0
     26459 TIP3     4843     TP3      H1       HW       0.417000       1.00800           0
     26460 TIP3     4843     TP3      H2       HW       0.417000       1.00800           0
     26461 TIP3     4844     TP3      O        OW      -0.834000       16.0000           0
     26462 TIP3     4844     TP3      H1       HW       0.417000       1.00800           0
     26463 TIP3     4844     TP3      H2       HW       0.417000       1.00800           0
     26464 TIP3     4845     TP3      O        OW      -0.834000       16.0000           0
     26465 TIP3     4845     TP3      H1       HW       0.417000       1.00800           0
     26466 TIP3     4845     TP3      H2       HW       0.417000       1.00800           0
     26467 TIP3     4846     TP3      O        OW      -0.834000       16.0000           0
     26468 TIP3     4846     TP3      H1       HW       0.417000       1.00800           0
     26469 TIP3     4846     TP3      H2       HW       0.417000       1.00800           0
     26470 TIP3     4847     TP3      O        OW      -0.834000       16.0000           0
     26471 TIP3     4847     TP3      H1       HW       0.417000       1.00800           0
     26472 TIP3     4847     TP3      H2       HW       0.417000       1.00800           0
     26473 TIP3     4848     TP3      O        OW      -0.834000       16.0000           0
     26474 TIP3     4848     TP3      H1       HW       0.417000       1.00800           0
     26475 TIP3     4848     TP3      H2       HW       0.417000       1.00800           0
     26476 TIP3     4849     TP3      O        OW      -0.834000       16.0000           0
     26477 TIP3     4849     TP3      H1       HW       0.417000       1.00800           0
     26478 TIP3     4849     TP3      H2       HW       0.417000       1.00800           0
     26479 TIP3     4850     TP3      O        OW      -0.834000       16.0000           0
     26480 TIP3     4850     TP3      H1       HW       0.417000       1.00800           0
     26481 TIP3     4850     TP3      H2       HW       0.417000       1.00800           0
     26482 TIP3     4851     TP3      O        OW      -0.834000       16.0000           0
     26483 TIP3     4851     TP3      H1       HW       0.417000       1.00800           0
     26484 TIP3     4851     TP3      H2       HW       0.417000       1.00800           0
     26485 TIP3     4852     TP3      O        OW      -0.834000       16.0000           0
     26486 TIP3     4852     TP3      H1       HW       0.417000       1.00800           0
     26487 TIP3     4852     TP3      H2       HW       0.417000       1.00800           0
     26488 TIP3     4853     TP3      O        OW      -0.834000       16.0000           0
     26489 TIP3     4853     TP3      H1       HW       0.417000       1.00800           0
     26490 TIP3     4853     TP3      H2       HW       0.417000       1.00800           0
     26491 TIP3     4854     TP3      O        OW      -0.834000       16.0000           0
     26492 TIP3     4854     TP3      H1       HW       0.417000       1.00800           0
     26493 TIP3     4854     TP3      H2       HW       0.417000       1.00800           0
     26494 TIP3     4855     TP3      O        OW      -0.834000       16.0000           0
     26495 TIP3     4855     TP3      H1       HW       0.417000       1.00800           0
     26496 TIP3     4855     TP3      H2       HW       0.417000       1.00800           0
     26497 TIP3     4856     TP3      O        OW      -0.834000       16.0000           0
     26498 TIP3     4856     TP3      H1       HW       0.417000       1.00800           0
     26499 TIP3     4856     TP3      H2       HW       0.417000       1.00800           0
     26500 TIP3     4857     TP3      O        OW      -0.834000       16.0000           0
     26501 TIP3     4857     TP3      H1       HW       0.417000       1.00800           0
     26502 TIP3     4857     TP3      H2       HW       0.417000       1.00800           0
     26503 TIP3     4858     TP3      O        OW      -0.834000       16.0000           0
     26504 TIP3     4858     TP3      H1       HW       0.417000       1.00800           0
     26505 TIP3     4858     TP3      H2       HW       0.417000       1.00800           0
     26506 TIP3     4859     TP3      O        OW      -0.834000       16.0000           0
     26507 TIP3     4859     TP3      H1       HW       0.417000       1.00800           0
     26508 TIP3     4859     TP3      H2       HW       0.417000       1.00800           0
     26509 TIP3     4860     TP3      O        OW      -0.834000       16.0000           0
     26510 TIP3     4860     TP3      H1       HW       0.417000       1.00800           0
     26511 TIP3     4860     TP3      H2       HW       0.417000       1.00800           0
     26512 TIP3     4861     TP3      O        OW      -0.834000       16.0000           0
     26513 TIP3     4861     TP3      H1       HW       0.417000       1.00800           0
     26514 TIP3     4861     TP3      H2       HW       0.417000       1.00800           0
     26515 TIP3     4862     TP3      O        OW      -0.834000       16.0000           0
     26516 TIP3     4862     TP3      H1       HW       0.417000       1.00800           0
     26517 TIP3     4862     TP3      H2       HW       0.417000       1.00800           0
     26518 TIP3     4863     TP3      O        OW      -0.834000       16.0000           0
     26519 TIP3     4863     TP3      H1       HW       0.417000       1.00800           0
     26520 TIP3     4863     TP3      H2       HW       0.417000       1.00800           0
     26521 TIP3     4864     TP3      O        OW      -0.834000       16.0000           0
     26522 TIP3     4864     TP3      H1       HW       0.417000       1.00800           0
     26523 TIP3     4864     TP3      H2       HW       0.417000       1.00800           0
     26524 TIP3     4865     TP3      O        OW      -0.834000       16.0000           0
     26525 TIP3     4865     TP3      H1       HW       0.417000       1.00800           0
     26526 TIP3     4865     TP3      H2       HW       0.417000       1.00800           0
     26527 TIP3     4866     TP3      O        OW      -0.834000       16.0000           0
     26528 TIP3     4866     TP3      H1       HW       0.417000       1.00800           0
     26529 TIP3     4866     TP3      H2       HW       0.417000       1.00800           0
     26530 TIP3     4867     TP3      O        OW      -0.834000       16.0000           0
     26531 TIP3     4867     TP3      H1       HW       0.417000       1.00800           0
     26532 TIP3     4867     TP3      H2       HW       0.417000       1.00800           0
     26533 TIP3     4868     TP3      O        OW      -0.834000       16.0000           0
     26534 TIP3     4868     TP3      H1       HW       0.417000       1.00800           0
     26535 TIP3     4868     TP3      H2       HW       0.417000       1.00800           0
     26536 TIP3     4869     TP3      O        OW      -0.834000       16.0000           0
     26537 TIP3     4869     TP3      H1       HW       0.417000       1.00800           0
     26538 TIP3     4869     TP3      H2       HW       0.417000       1.00800           0
     26539 TIP3     4870     TP3      O        OW      -0.834000       16.0000           0
     26540 TIP3     4870     TP3      H1       HW       0.417000       1.00800           0
     26541 TIP3     4870     TP3      H2       HW       0.417000       1.00800           0
     26542 TIP3     4871     TP3      O        OW      -0.834000       16.0000           0
     26543 TIP3     4871     TP3      H1       HW       0.417000       1.00800           0
     26544 TIP3     4871     TP3      H2       HW       0.417000       1.00800           0
     26545 TIP3     4872     TP3      O        OW      -0.834000       16.0000           0
     26546 TIP3     4872     TP3      H1       HW       0.417000       1.00800           0
     26547 TIP3     4872     TP3      H2       HW       0.417000       1.00800           0
     26548 TIP3     4873     TP3      O        OW      -0.834000       16.0000           0
     26549 TIP3     4873     TP3      H1       HW       0.417000       1.00800           0
     26550 TIP3     4873     TP3      H2       HW       0.417000       1.00800           0
     26551 TIP3     4874     TP3      O        OW      -0.834000       16.0000           0
     26552 TIP3     4874     TP3      H1       HW       0.417000       1.00800           0
     26553 TIP3     4874     TP3      H2       HW       0.417000       1.00800           0
     26554 TIP3     4875     TP3      O        OW      -0.834000       16.0000           0
     26555 TIP3     4875     TP3      H1       HW       0.417000       1.00800           0
     26556 TIP3     4875     TP3      H2       HW       0.417000       1.00800           0
     26557 TIP3     4876     TP3      O        OW      -0.834000       16.0000           0
     26558 TIP3     4876     TP3      H1       HW       0.417000       1.00800           0
     26559 TIP3     4876     TP3      H2       HW       0.417000       1.00800           0
     26560 TIP3     4877     TP3      O        OW      -0.834000       16.0000           0
     26561 TIP3     4877     TP3      H1       HW       0.417000       1.00800           0
     26562 TIP3     4877     TP3      H2       HW       0.417000       1.00800           0
     26563 TIP3     4878     TP3      O        OW      -0.834000       16.0000           0
     26564 TIP3     4878     TP3      H1       HW       0.417000       1.00800           0
     26565 TIP3     4878     TP3      H2       HW       0.417000       1.00800           0
     26566 TIP3     4879     TP3      O        OW      -0.834000       16.0000           0
     26567 TIP3     4879     TP3      H1       HW       0.417000       1.00800           0
     26568 TIP3     4879     TP3      H2       HW       0.417000       1.00800           0
     26569 TIP3     4880     TP3      O        OW      -0.834000       16.0000           0
     26570 TIP3     4880     TP3      H1       HW       0.417000       1.00800           0
     26571 TIP3     4880     TP3      H2       HW       0.417000       1.00800           0
     26572 TIP3     4881     TP3      O        OW      -0.834000       16.0000           0
     26573 TIP3     4881     TP3      H1       HW       0.417000       1.00800           0
     26574 TIP3     4881     TP3      H2       HW       0.417000       1.00800           0
     26575 TIP3     4882     TP3      O        OW      -0.834000       16.0000           0
     26576 TIP3     4882     TP3      H1       HW       0.417000       1.00800           0
     26577 TIP3     4882     TP3      H2       HW       0.417000       1.00800           0
     26578 TIP3     4883     TP3      O        OW      -0.834000       16.0000           0
     26579 TIP3     4883     TP3      H1       HW       0.417000       1.00800           0
     26580 TIP3     4883     TP3      H2       HW       0.417000       1.00800           0
     26581 TIP3     4884     TP3      O        OW      -0.834000       16.0000           0
     26582 TIP3     4884     TP3      H1       HW       0.417000       1.00800           0
     26583 TIP3     4884     TP3      H2       HW       0.417000       1.00800           0
     26584 TIP3     4885     TP3      O        OW      -0.834000       16.0000           0
     26585 TIP3     4885     TP3      H1       HW       0.417000       1.00800           0
     26586 TIP3     4885     TP3      H2       HW       0.417000       1.00800           0
     26587 TIP3     4886     TP3      O        OW      -0.834000       16.0000           0
     26588 TIP3     4886     TP3      H1       HW       0.417000       1.00800           0
     26589 TIP3     4886     TP3      H2       HW       0.417000       1.00800           0
     26590 TIP3     4887     TP3      O        OW      -0.834000       16.0000           0
     26591 TIP3     4887     TP3      H1       HW       0.417000       1.00800           0
     26592 TIP3     4887     TP3      H2       HW       0.417000       1.00800           0
     26593 TIP3     4888     TP3      O        OW      -0.834000       16.0000           0
     26594 TIP3     4888     TP3      H1       HW       0.417000       1.00800           0
     26595 TIP3     4888     TP3      H2       HW       0.417000       1.00800           0
     26596 TIP3     4889     TP3      O        OW      -0.834000       16.0000           0
     26597 TIP3     4889     TP3      H1       HW       0.417000       1.00800           0
     26598 TIP3     4889     TP3      H2       HW       0.417000       1.00800           0
     26599 TIP3     4890     TP3      O        OW      -0.834000       16.0000           0
     26600 TIP3     4890     TP3      H1       HW       0.417000       1.00800           0
     26601 TIP3     4890     TP3      H2       HW       0.417000       1.00800           0
     26602 TIP3     4891     TP3      O        OW      -0.834000       16.0000           0
     26603 TIP3     4891     TP3      H1       HW       0.417000       1.00800           0
     26604 TIP3     4891     TP3      H2       HW       0.417000       1.00800           0
     26605 TIP3     4892     TP3      O        OW      -0.834000       16.0000           0
     26606 TIP3     4892     TP3      H1       HW       0.417000       1.00800           0
     26607 TIP3     4892     TP3      H2       HW       0.417000       1.00800           0
     26608 TIP3     4893     TP3      O        OW      -0.834000       16.0000           0
     26609 TIP3     4893     TP3      H1       HW       0.417000       1.00800           0
     26610 TIP3     4893     TP3      H2       HW       0.417000       1.00800           0
     26611 TIP3     4894     TP3      O        OW      -0.834000       16.0000           0
     26612 TIP3     4894     TP3      H1       HW       0.417000       1.00800           0
     26613 TIP3     4894     TP3      H2       HW       0.417000       1.00800           0
     26614 TIP3     4895     TP3      O        OW      -0.834000       16.0000           0
     26615 TIP3     4895     TP3      H1       HW       0.417000       1.00800           0
     26616 TIP3     4895     TP3      H2       HW       0.417000       1.00800           0
     26617 TIP3     4896     TP3      O        OW      -0.834000       16.0000           0
     26618 TIP3     4896     TP3      H1       HW       0.417000       1.00800           0
     26619 TIP3     4896     TP3      H2       HW       0.417000       1.00800           0
     26620 TIP3     4897     TP3      O        OW      -0.834000       16.0000           0
     26621 TIP3     4897     TP3      H1       HW       0.417000       1.00800           0
     26622 TIP3     4897     TP3      H2       HW       0.417000       1.00800           0
     26623 TIP3     4898     TP3      O        OW      -0.834000       16.0000           0
     26624 TIP3     4898     TP3      H1       HW       0.417000       1.00800           0
     26625 TIP3     4898     TP3      H2       HW       0.417000       1.00800           0
     26626 TIP3     4899     TP3      O        OW      -0.834000       16.0000           0
     26627 TIP3     4899     TP3      H1       HW       0.417000       1.00800           0
     26628 TIP3     4899     TP3      H2       HW       0.417000       1.00800           0
     26629 TIP3     4900     TP3      O        OW      -0.834000       16.0000           0
     26630 TIP3     4900     TP3      H1       HW       0.417000       1.00800           0
     26631 TIP3     4900     TP3      H2       HW       0.417000       1.00800           0
     26632 TIP3     4901     TP3      O        OW      -0.834000       16.0000           0
     26633 TIP3     4901     TP3      H1       HW       0.417000       1.00800           0
     26634 TIP3     4901     TP3      H2       HW       0.417000       1.00800           0
     26635 TIP3     4902     TP3      O        OW      -0.834000       16.0000           0
     26636 TIP3     4902     TP3      H1       HW       0.417000       1.00800           0
     26637 TIP3     4902     TP3      H2       HW       0.417000       1.00800           0
     26638 TIP3     4903     TP3      O        OW      -0.834000       16.0000           0
     26639 TIP3     4903     TP3      H1       HW       0.417000       1.00800           0
     26640 TIP3     4903     TP3      H2       HW       0.417000       1.00800           0
     26641 TIP3     4904     TP3      O        OW      -0.834000       16.0000           0
     26642 TIP3     4904     TP3      H1       HW       0.417000       1.00800           0
     26643 TIP3     4904     TP3      H2       HW       0.417000       1.00800           0
     26644 TIP3     4905     TP3      O        OW      -0.834000       16.0000           0
     26645 TIP3     4905     TP3      H1       HW       0.417000       1.00800           0
     26646 TIP3     4905     TP3      H2       HW       0.417000       1.00800           0
     26647 TIP3     4906     TP3      O        OW      -0.834000       16.0000           0
     26648 TIP3     4906     TP3      H1       HW       0.417000       1.00800           0
     26649 TIP3     4906     TP3      H2       HW       0.417000       1.00800           0
     26650 TIP3     4907     TP3      O        OW      -0.834000       16.0000           0
     26651 TIP3     4907     TP3      H1       HW       0.417000       1.00800           0
     26652 TIP3     4907     TP3      H2       HW       0.417000       1.00800           0
     26653 TIP3     4908     TP3      O        OW      -0.834000       16.0000           0
     26654 TIP3     4908     TP3      H1       HW       0.417000       1.00800           0
     26655 TIP3     4908     TP3      H2       HW       0.417000       1.00800           0
     26656 TIP3     4909     TP3      O        OW      -0.834000       16.0000           0
     26657 TIP3     4909     TP3      H1       HW       0.417000       1.00800           0
     26658 TIP3     4909     TP3      H2       HW       0.417000       1.00800           0
     26659 TIP3     4910     TP3      O        OW      -0.834000       16.0000           0
     26660 TIP3     4910     TP3      H1       HW       0.417000       1.00800           0
     26661 TIP3     4910     TP3      H2       HW       0.417000       1.00800           0
     26662 TIP3     4911     TP3      O        OW      -0.834000       16.0000           0
     26663 TIP3     4911     TP3      H1       HW       0.417000       1.00800           0
     26664 TIP3     4911     TP3      H2       HW       0.417000       1.00800           0
     26665 TIP3     4912     TP3      O        OW      -0.834000       16.0000           0
     26666 TIP3     4912     TP3      H1       HW       0.417000       1.00800           0
     26667 TIP3     4912     TP3      H2       HW       0.417000       1.00800           0
     26668 TIP3     4913     TP3      O        OW      -0.834000       16.0000           0
     26669 TIP3     4913     TP3      H1       HW       0.417000       1.00800           0
     26670 TIP3     4913     TP3      H2       HW       0.417000       1.00800           0
     26671 TIP3     4914     TP3      O        OW      -0.834000       16.0000           0
     26672 TIP3     4914     TP3      H1       HW       0.417000       1.00800           0
     26673 TIP3     4914     TP3      H2       HW       0.417000       1.00800           0
     26674 TIP3     4915     TP3      O        OW      -0.834000       16.0000           0
     26675 TIP3     4915     TP3      H1       HW       0.417000       1.00800           0
     26676 TIP3     4915     TP3      H2       HW       0.417000       1.00800           0
     26677 TIP3     4916     TP3      O        OW      -0.834000       16.0000           0
     26678 TIP3     4916     TP3      H1       HW       0.417000       1.00800           0
     26679 TIP3     4916     TP3      H2       HW       0.417000       1.00800           0
     26680 TIP3     4917     TP3      O        OW      -0.834000       16.0000           0
     26681 TIP3     4917     TP3      H1       HW       0.417000       1.00800           0
     26682 TIP3     4917     TP3      H2       HW       0.417000       1.00800           0
     26683 TIP3     4918     TP3      O        OW      -0.834000       16.0000           0
     26684 TIP3     4918     TP3      H1       HW       0.417000       1.00800           0
     26685 TIP3     4918     TP3      H2       HW       0.417000       1.00800           0
     26686 TIP3     4919     TP3      O        OW      -0.834000       16.0000           0
     26687 TIP3     4919     TP3      H1       HW       0.417000       1.00800           0
     26688 TIP3     4919     TP3      H2       HW       0.417000       1.00800           0
     26689 TIP3     4920     TP3      O        OW      -0.834000       16.0000           0
     26690 TIP3     4920     TP3      H1       HW       0.417000       1.00800           0
     26691 TIP3     4920     TP3      H2       HW       0.417000       1.00800           0
     26692 TIP3     4921     TP3      O        OW      -0.834000       16.0000           0
     26693 TIP3     4921     TP3      H1       HW       0.417000       1.00800           0
     26694 TIP3     4921     TP3      H2       HW       0.417000       1.00800           0
     26695 TIP3     4922     TP3      O        OW      -0.834000       16.0000           0
     26696 TIP3     4922     TP3      H1       HW       0.417000       1.00800           0
     26697 TIP3     4922     TP3      H2       HW       0.417000       1.00800           0
     26698 TIP3     4923     TP3      O        OW      -0.834000       16.0000           0
     26699 TIP3     4923     TP3      H1       HW       0.417000       1.00800           0
     26700 TIP3     4923     TP3      H2       HW       0.417000       1.00800           0
     26701 TIP3     4924     TP3      O        OW      -0.834000       16.0000           0
     26702 TIP3     4924     TP3      H1       HW       0.417000       1.00800           0
     26703 TIP3     4924     TP3      H2       HW       0.417000       1.00800           0
     26704 TIP3     4925     TP3      O        OW      -0.834000       16.0000           0
     26705 TIP3     4925     TP3      H1       HW       0.417000       1.00800           0
     26706 TIP3     4925     TP3      H2       HW       0.417000       1.00800           0
     26707 TIP3     4926     TP3      O        OW      -0.834000       16.0000           0
     26708 TIP3     4926     TP3      H1       HW       0.417000       1.00800           0
     26709 TIP3     4926     TP3      H2       HW       0.417000       1.00800           0
     26710 TIP3     4927     TP3      O        OW      -0.834000       16.0000           0
     26711 TIP3     4927     TP3      H1       HW       0.417000       1.00800           0
     26712 TIP3     4927     TP3      H2       HW       0.417000       1.00800           0
     26713 TIP3     4928     TP3      O        OW      -0.834000       16.0000           0
     26714 TIP3     4928     TP3      H1       HW       0.417000       1.00800           0
     26715 TIP3     4928     TP3      H2       HW       0.417000       1.00800           0
     26716 TIP3     4929     TP3      O        OW      -0.834000       16.0000           0
     26717 TIP3     4929     TP3      H1       HW       0.417000       1.00800           0
     26718 TIP3     4929     TP3      H2       HW       0.417000       1.00800           0
     26719 TIP3     4930     TP3      O        OW      -0.834000       16.0000           0
     26720 TIP3     4930     TP3      H1       HW       0.417000       1.00800           0
     26721 TIP3     4930     TP3      H2       HW       0.417000       1.00800           0
     26722 TIP3     4931     TP3      O        OW      -0.834000       16.0000           0
     26723 TIP3     4931     TP3      H1       HW       0.417000       1.00800           0
     26724 TIP3     4931     TP3      H2       HW       0.417000       1.00800           0
     26725 TIP3     4932     TP3      O        OW      -0.834000       16.0000           0
     26726 TIP3     4932     TP3      H1       HW       0.417000       1.00800           0
     26727 TIP3     4932     TP3      H2       HW       0.417000       1.00800           0
     26728 TIP3     4933     TP3      O        OW      -0.834000       16.0000           0
     26729 TIP3     4933     TP3      H1       HW       0.417000       1.00800           0
     26730 TIP3     4933     TP3      H2       HW       0.417000       1.00800           0
     26731 TIP3     4934     TP3      O        OW      -0.834000       16.0000           0
     26732 TIP3     4934     TP3      H1       HW       0.417000       1.00800           0
     26733 TIP3     4934     TP3      H2       HW       0.417000       1.00800           0
     26734 TIP3     4935     TP3      O        OW      -0.834000       16.0000           0
     26735 TIP3     4935     TP3      H1       HW       0.417000       1.00800           0
     26736 TIP3     4935     TP3      H2       HW       0.417000       1.00800           0
     26737 TIP3     4936     TP3      O        OW      -0.834000       16.0000           0
     26738 TIP3     4936     TP3      H1       HW       0.417000       1.00800           0
     26739 TIP3     4936     TP3      H2       HW       0.417000       1.00800           0
     26740 TIP3     4937     TP3      O        OW      -0.834000       16.0000           0
     26741 TIP3     4937     TP3      H1       HW       0.417000       1.00800           0
     26742 TIP3     4937     TP3      H2       HW       0.417000       1.00800           0
     26743 TIP3     4938     TP3      O        OW      -0.834000       16.0000           0
     26744 TIP3     4938     TP3      H1       HW       0.417000       1.00800           0
     26745 TIP3     4938     TP3      H2       HW       0.417000       1.00800           0
     26746 TIP3     4939     TP3      O        OW      -0.834000       16.0000           0
     26747 TIP3     4939     TP3      H1       HW       0.417000       1.00800           0
     26748 TIP3     4939     TP3      H2       HW       0.417000       1.00800           0
     26749 TIP3     4940     TP3      O        OW      -0.834000       16.0000           0
     26750 TIP3     4940     TP3      H1       HW       0.417000       1.00800           0
     26751 TIP3     4940     TP3      H2       HW       0.417000       1.00800           0
     26752 TIP3     4941     TP3      O        OW      -0.834000       16.0000           0
     26753 TIP3     4941     TP3      H1       HW       0.417000       1.00800           0
     26754 TIP3     4941     TP3      H2       HW       0.417000       1.00800           0
     26755 TIP3     4942     TP3      O        OW      -0.834000       16.0000           0
     26756 TIP3     4942     TP3      H1       HW       0.417000       1.00800           0
     26757 TIP3     4942     TP3      H2       HW       0.417000       1.00800           0
     26758 TIP3     4943     TP3      O        OW      -0.834000       16.0000           0
     26759 TIP3     4943     TP3      H1       HW       0.417000       1.00800           0
     26760 TIP3     4943     TP3      H2       HW       0.417000       1.00800           0
     26761 TIP3     4944     TP3      O        OW      -0.834000       16.0000           0
     26762 TIP3     4944     TP3      H1       HW       0.417000       1.00800           0
     26763 TIP3     4944     TP3      H2       HW       0.417000       1.00800           0
     26764 TIP3     4945     TP3      O        OW      -0.834000       16.0000           0
     26765 TIP3     4945     TP3      H1       HW       0.417000       1.00800           0
     26766 TIP3     4945     TP3      H2       HW       0.417000       1.00800           0
     26767 TIP3     4946     TP3      O        OW      -0.834000       16.0000           0
     26768 TIP3     4946     TP3      H1       HW       0.417000       1.00800           0
     26769 TIP3     4946     TP3      H2       HW       0.417000       1.00800           0
     26770 TIP3     4947     TP3      O        OW      -0.834000       16.0000           0
     26771 TIP3     4947     TP3      H1       HW       0.417000       1.00800           0
     26772 TIP3     4947     TP3      H2       HW       0.417000       1.00800           0
     26773 TIP3     4948     TP3      O        OW      -0.834000       16.0000           0
     26774 TIP3     4948     TP3      H1       HW       0.417000       1.00800           0
     26775 TIP3     4948     TP3      H2       HW       0.417000       1.00800           0
     26776 TIP3     4949     TP3      O        OW      -0.834000       16.0000           0
     26777 TIP3     4949     TP3      H1       HW       0.417000       1.00800           0
     26778 TIP3     4949     TP3      H2       HW       0.417000       1.00800           0
     26779 TIP3     4950     TP3      O        OW      -0.834000       16.0000           0
     26780 TIP3     4950     TP3      H1       HW       0.417000       1.00800           0
     26781 TIP3     4950     TP3      H2       HW       0.417000       1.00800           0
     26782 TIP3     4951     TP3      O        OW      -0.834000       16.0000           0
     26783 TIP3     4951     TP3      H1       HW       0.417000       1.00800           0
     26784 TIP3     4951     TP3      H2       HW       0.417000       1.00800           0
     26785 TIP3     4952     TP3      O        OW      -0.834000       16.0000           0
     26786 TIP3     4952     TP3      H1       HW       0.417000       1.00800           0
     26787 TIP3     4952     TP3      H2       HW       0.417000       1.00800           0
     26788 TIP3     4953     TP3      O        OW      -0.834000       16.0000           0
     26789 TIP3     4953     TP3      H1       HW       0.417000       1.00800           0
     26790 TIP3     4953     TP3      H2       HW       0.417000       1.00800           0
     26791 TIP3     4954     TP3      O        OW      -0.834000       16.0000           0
     26792 TIP3     4954     TP3      H1       HW       0.417000       1.00800           0
     26793 TIP3     4954     TP3      H2       HW       0.417000       1.00800           0
     26794 TIP3     4955     TP3      O        OW      -0.834000       16.0000           0
     26795 TIP3     4955     TP3      H1       HW       0.417000       1.00800           0
     26796 TIP3     4955     TP3      H2       HW       0.417000       1.00800           0
     26797 TIP3     4956     TP3      O        OW      -0.834000       16.0000           0
     26798 TIP3     4956     TP3      H1       HW       0.417000       1.00800           0
     26799 TIP3     4956     TP3      H2       HW       0.417000       1.00800           0
     26800 TIP3     4957     TP3      O        OW      -0.834000       16.0000           0
     26801 TIP3     4957     TP3      H1       HW       0.417000       1.00800           0
     26802 TIP3     4957     TP3      H2       HW       0.417000       1.00800           0
     26803 TIP3     4958     TP3      O        OW      -0.834000       16.0000           0
     26804 TIP3     4958     TP3      H1       HW       0.417000       1.00800           0
     26805 TIP3     4958     TP3      H2       HW       0.417000       1.00800           0
     26806 TIP3     4959     TP3      O        OW      -0.834000       16.0000           0
     26807 TIP3     4959     TP3      H1       HW       0.417000       1.00800           0
     26808 TIP3     4959     TP3      H2       HW       0.417000       1.00800           0
     26809 TIP3     4960     TP3      O        OW      -0.834000       16.0000           0
     26810 TIP3     4960     TP3      H1       HW       0.417000       1.00800           0
     26811 TIP3     4960     TP3      H2       HW       0.417000       1.00800           0
     26812 TIP3     4961     TP3      O        OW      -0.834000       16.0000           0
     26813 TIP3     4961     TP3      H1       HW       0.417000       1.00800           0
     26814 TIP3     4961     TP3      H2       HW       0.417000       1.00800           0
     26815 TIP3     4962     TP3      O        OW      -0.834000       16.0000           0
     26816 TIP3     4962     TP3      H1       HW       0.417000       1.00800           0
     26817 TIP3     4962     TP3      H2       HW       0.417000       1.00800           0
     26818 TIP3     4963     TP3      O        OW      -0.834000       16.0000           0
     26819 TIP3     4963     TP3      H1       HW       0.417000       1.00800           0
     26820 TIP3     4963     TP3      H2       HW       0.417000       1.00800           0
     26821 TIP3     4964     TP3      O        OW      -0.834000       16.0000           0
     26822 TIP3     4964     TP3      H1       HW       0.417000       1.00800           0
     26823 TIP3     4964     TP3      H2       HW       0.417000       1.00800           0
     26824 TIP3     4965     TP3      O        OW      -0.834000       16.0000           0
     26825 TIP3     4965     TP3      H1       HW       0.417000       1.00800           0
     26826 TIP3     4965     TP3      H2       HW       0.417000       1.00800           0
     26827 TIP3     4966     TP3      O        OW      -0.834000       16.0000           0
     26828 TIP3     4966     TP3      H1       HW       0.417000       1.00800           0
     26829 TIP3     4966     TP3      H2       HW       0.417000       1.00800           0
     26830 TIP3     4967     TP3      O        OW      -0.834000       16.0000           0
     26831 TIP3     4967     TP3      H1       HW       0.417000       1.00800           0
     26832 TIP3     4967     TP3      H2       HW       0.417000       1.00800           0
     26833 TIP3     4968     TP3      O        OW      -0.834000       16.0000           0
     26834 TIP3     4968     TP3      H1       HW       0.417000       1.00800           0
     26835 TIP3     4968     TP3      H2       HW       0.417000       1.00800           0
     26836 TIP3     4969     TP3      O        OW      -0.834000       16.0000           0
     26837 TIP3     4969     TP3      H1       HW       0.417000       1.00800           0
     26838 TIP3     4969     TP3      H2       HW       0.417000       1.00800           0
     26839 TIP3     4970     TP3      O        OW      -0.834000       16.0000           0
     26840 TIP3     4970     TP3      H1       HW       0.417000       1.00800           0
     26841 TIP3     4970     TP3      H2       HW       0.417000       1.00800           0
     26842 TIP3     4971     TP3      O        OW      -0.834000       16.0000           0
     26843 TIP3     4971     TP3      H1       HW       0.417000       1.00800           0
     26844 TIP3     4971     TP3      H2       HW       0.417000       1.00800           0
     26845 TIP3     4972     TP3      O        OW      -0.834000       16.0000           0
     26846 TIP3     4972     TP3      H1       HW       0.417000       1.00800           0
     26847 TIP3     4972     TP3      H2       HW       0.417000       1.00800           0
     26848 TIP3     4973     TP3      O        OW      -0.834000       16.0000           0
     26849 TIP3     4973     TP3      H1       HW       0.417000       1.00800           0
     26850 TIP3     4973     TP3      H2       HW       0.417000       1.00800           0
     26851 TIP3     4974     TP3      O        OW      -0.834000       16.0000           0
     26852 TIP3     4974     TP3      H1       HW       0.417000       1.00800           0
     26853 TIP3     4974     TP3      H2       HW       0.417000       1.00800           0
     26854 TIP3     4975     TP3      O        OW      -0.834000       16.0000           0
     26855 TIP3     4975     TP3      H1       HW       0.417000       1.00800           0
     26856 TIP3     4975     TP3      H2       HW       0.417000       1.00800           0
     26857 TIP3     4976     TP3      O        OW      -0.834000       16.0000           0
     26858 TIP3     4976     TP3      H1       HW       0.417000       1.00800           0
     26859 TIP3     4976     TP3      H2       HW       0.417000       1.00800           0
     26860 TIP3     4977     TP3      O        OW      -0.834000       16.0000           0
     26861 TIP3     4977     TP3      H1       HW       0.417000       1.00800           0
     26862 TIP3     4977     TP3      H2       HW       0.417000       1.00800           0
     26863 TIP3     4978     TP3      O        OW      -0.834000       16.0000           0
     26864 TIP3     4978     TP3      H1       HW       0.417000       1.00800           0
     26865 TIP3     4978     TP3      H2       HW       0.417000       1.00800           0
     26866 TIP3     4979     TP3      O        OW      -0.834000       16.0000           0
     26867 TIP3     4979     TP3      H1       HW       0.417000       1.00800           0
     26868 TIP3     4979     TP3      H2       HW       0.417000       1.00800           0
     26869 TIP3     4980     TP3      O        OW      -0.834000       16.0000           0
     26870 TIP3     4980     TP3      H1       HW       0.417000       1.00800           0
     26871 TIP3     4980     TP3      H2       HW       0.417000       1.00800           0
     26872 TIP3     4981     TP3      O        OW      -0.834000       16.0000           0
     26873 TIP3     4981     TP3      H1       HW       0.417000       1.00800           0
     26874 TIP3     4981     TP3      H2       HW       0.417000       1.00800           0
     26875 TIP3     4982     TP3      O        OW      -0.834000       16.0000           0
     26876 TIP3     4982     TP3      H1       HW       0.417000       1.00800           0
     26877 TIP3     4982     TP3      H2       HW       0.417000       1.00800           0
     26878 TIP3     4983     TP3      O        OW      -0.834000       16.0000           0
     26879 TIP3     4983     TP3      H1       HW       0.417000       1.00800           0
     26880 TIP3     4983     TP3      H2       HW       0.417000       1.00800           0
     26881 TIP3     4984     TP3      O        OW      -0.834000       16.0000           0
     26882 TIP3     4984     TP3      H1       HW       0.417000       1.00800           0
     26883 TIP3     4984     TP3      H2       HW       0.417000       1.00800           0
     26884 TIP3     4985     TP3      O        OW      -0.834000       16.0000           0
     26885 TIP3     4985     TP3      H1       HW       0.417000       1.00800           0
     26886 TIP3     4985     TP3      H2       HW       0.417000       1.00800           0
     26887 TIP3     4986     TP3      O        OW      -0.834000       16.0000           0
     26888 TIP3     4986     TP3      H1       HW       0.417000       1.00800           0
     26889 TIP3     4986     TP3      H2       HW       0.417000       1.00800           0
     26890 TIP3     4987     TP3      O        OW      -0.834000       16.0000           0
     26891 TIP3     4987     TP3      H1       HW       0.417000       1.00800           0
     26892 TIP3     4987     TP3      H2       HW       0.417000       1.00800           0
     26893 TIP3     4988     TP3      O        OW      -0.834000       16.0000           0
     26894 TIP3     4988     TP3      H1       HW       0.417000       1.00800           0
     26895 TIP3     4988     TP3      H2       HW       0.417000       1.00800           0
     26896 TIP3     4989     TP3      O        OW      -0.834000       16.0000           0
     26897 TIP3     4989     TP3      H1       HW       0.417000       1.00800           0
     26898 TIP3     4989     TP3      H2       HW       0.417000       1.00800           0
     26899 TIP3     4990     TP3      O        OW      -0.834000       16.0000           0
     26900 TIP3     4990     TP3      H1       HW       0.417000       1.00800           0
     26901 TIP3     4990     TP3      H2       HW       0.417000       1.00800           0
     26902 TIP3     4991     TP3      O        OW      -0.834000       16.0000           0
     26903 TIP3     4991     TP3      H1       HW       0.417000       1.00800           0
     26904 TIP3     4991     TP3      H2       HW       0.417000       1.00800           0
     26905 TIP3     4992     TP3      O        OW      -0.834000       16.0000           0
     26906 TIP3     4992     TP3      H1       HW       0.417000       1.00800           0
     26907 TIP3     4992     TP3      H2       HW       0.417000       1.00800           0
     26908 TIP3     4993     TP3      O        OW      -0.834000       16.0000           0
     26909 TIP3     4993     TP3      H1       HW       0.417000       1.00800           0
     26910 TIP3     4993     TP3      H2       HW       0.417000       1.00800           0
     26911 TIP3     4994     TP3      O        OW      -0.834000       16.0000           0
     26912 TIP3     4994     TP3      H1       HW       0.417000       1.00800           0
     26913 TIP3     4994     TP3      H2       HW       0.417000       1.00800           0
     26914 TIP3     4995     TP3      O        OW      -0.834000       16.0000           0
     26915 TIP3     4995     TP3      H1       HW       0.417000       1.00800           0
     26916 TIP3     4995     TP3      H2       HW       0.417000       1.00800           0
     26917 TIP3     4996     TP3      O        OW      -0.834000       16.0000           0
     26918 TIP3     4996     TP3      H1       HW       0.417000       1.00800           0
     26919 TIP3     4996     TP3      H2       HW       0.417000       1.00800           0
     26920 TIP3     4997     TP3      O        OW      -0.834000       16.0000           0
     26921 TIP3     4997     TP3      H1       HW       0.417000       1.00800           0
     26922 TIP3     4997     TP3      H2       HW       0.417000       1.00800           0
     26923 TIP3     4998     TP3      O        OW      -0.834000       16.0000           0
     26924 TIP3     4998     TP3      H1       HW       0.417000       1.00800           0
     26925 TIP3     4998     TP3      H2       HW       0.417000       1.00800           0
     26926 TIP3     4999     TP3      O        OW      -0.834000       16.0000           0
     26927 TIP3     4999     TP3      H1       HW       0.417000       1.00800           0
     26928 TIP3     4999     TP3      H2       HW       0.417000       1.00800           0
     26929 TIP3     5000     TP3      O        OW      -0.834000       16.0000           0
     26930 TIP3     5000     TP3      H1       HW       0.417000       1.00800           0
     26931 TIP3     5000     TP3      H2       HW       0.417000       1.00800           0
     26932 TIP3     5001     TP3      O        OW      -0.834000       16.0000           0
     26933 TIP3     5001     TP3      H1       HW       0.417000       1.00800           0
     26934 TIP3     5001     TP3      H2       HW       0.417000       1.00800           0
     26935 TIP3     5002     TP3      O        OW      -0.834000       16.0000           0
     26936 TIP3     5002     TP3      H1       HW       0.417000       1.00800           0
     26937 TIP3     5002     TP3      H2       HW       0.417000       1.00800           0
     26938 TIP3     5003     TP3      O        OW      -0.834000       16.0000           0
     26939 TIP3     5003     TP3      H1       HW       0.417000       1.00800           0
     26940 TIP3     5003     TP3      H2       HW       0.417000       1.00800           0
     26941 TIP3     5004     TP3      O        OW      -0.834000       16.0000           0
     26942 TIP3     5004     TP3      H1       HW       0.417000       1.00800           0
     26943 TIP3     5004     TP3      H2       HW       0.417000       1.00800           0
     26944 TIP3     5005     TP3      O        OW      -0.834000       16.0000           0
     26945 TIP3     5005     TP3      H1       HW       0.417000       1.00800           0
     26946 TIP3     5005     TP3      H2       HW       0.417000       1.00800           0
     26947 TIP3     5006     TP3      O        OW      -0.834000       16.0000           0
     26948 TIP3     5006     TP3      H1       HW       0.417000       1.00800           0
     26949 TIP3     5006     TP3      H2       HW       0.417000       1.00800           0
     26950 TIP3     5007     TP3      O        OW      -0.834000       16.0000           0
     26951 TIP3     5007     TP3      H1       HW       0.417000       1.00800           0
     26952 TIP3     5007     TP3      H2       HW       0.417000       1.00800           0
     26953 TIP3     5008     TP3      O        OW      -0.834000       16.0000           0
     26954 TIP3     5008     TP3      H1       HW       0.417000       1.00800           0
     26955 TIP3     5008     TP3      H2       HW       0.417000       1.00800           0
     26956 TIP3     5009     TP3      O        OW      -0.834000       16.0000           0
     26957 TIP3     5009     TP3      H1       HW       0.417000       1.00800           0
     26958 TIP3     5009     TP3      H2       HW       0.417000       1.00800           0
     26959 TIP3     5010     TP3      O        OW      -0.834000       16.0000           0
     26960 TIP3     5010     TP3      H1       HW       0.417000       1.00800           0
     26961 TIP3     5010     TP3      H2       HW       0.417000       1.00800           0
     26962 TIP3     5011     TP3      O        OW      -0.834000       16.0000           0
     26963 TIP3     5011     TP3      H1       HW       0.417000       1.00800           0
     26964 TIP3     5011     TP3      H2       HW       0.417000       1.00800           0
     26965 TIP3     5012     TP3      O        OW      -0.834000       16.0000           0
     26966 TIP3     5012     TP3      H1       HW       0.417000       1.00800           0
     26967 TIP3     5012     TP3      H2       HW       0.417000       1.00800           0
     26968 TIP3     5013     TP3      O        OW      -0.834000       16.0000           0
     26969 TIP3     5013     TP3      H1       HW       0.417000       1.00800           0
     26970 TIP3     5013     TP3      H2       HW       0.417000       1.00800           0
     26971 TIP3     5014     TP3      O        OW      -0.834000       16.0000           0
     26972 TIP3     5014     TP3      H1       HW       0.417000       1.00800           0
     26973 TIP3     5014     TP3      H2       HW       0.417000       1.00800           0
     26974 TIP3     5015     TP3      O        OW      -0.834000       16.0000           0
     26975 TIP3     5015     TP3      H1       HW       0.417000       1.00800           0
     26976 TIP3     5015     TP3      H2       HW       0.417000       1.00800           0
     26977 TIP3     5016     TP3      O        OW      -0.834000       16.0000           0
     26978 TIP3     5016     TP3      H1       HW       0.417000       1.00800           0
     26979 TIP3     5016     TP3      H2       HW       0.417000       1.00800           0
     26980 TIP3     5017     TP3      O        OW      -0.834000       16.0000           0
     26981 TIP3     5017     TP3      H1       HW       0.417000       1.00800           0
     26982 TIP3     5017     TP3      H2       HW       0.417000       1.00800           0
     26983 TIP3     5018     TP3      O        OW      -0.834000       16.0000           0
     26984 TIP3     5018     TP3      H1       HW       0.417000       1.00800           0
     26985 TIP3     5018     TP3      H2       HW       0.417000       1.00800           0
     26986 TIP3     5019     TP3      O        OW      -0.834000       16.0000           0
     26987 TIP3     5019     TP3      H1       HW       0.417000       1.00800           0
     26988 TIP3     5019     TP3      H2       HW       0.417000       1.00800           0
     26989 TIP3     5020     TP3      O        OW      -0.834000       16.0000           0
     26990 TIP3     5020     TP3      H1       HW       0.417000       1.00800           0
     26991 TIP3     5020     TP3      H2       HW       0.417000       1.00800           0
     26992 TIP3     5021     TP3      O        OW      -0.834000       16.0000           0
     26993 TIP3     5021     TP3      H1       HW       0.417000       1.00800           0
     26994 TIP3     5021     TP3      H2       HW       0.417000       1.00800           0
     26995 TIP3     5022     TP3      O        OW      -0.834000       16.0000           0
     26996 TIP3     5022     TP3      H1       HW       0.417000       1.00800           0
     26997 TIP3     5022     TP3      H2       HW       0.417000       1.00800           0
     26998 TIP3     5023     TP3      O        OW      -0.834000       16.0000           0
     26999 TIP3     5023     TP3      H1       HW       0.417000       1.00800           0
     27000 TIP3     5023     TP3      H2       HW       0.417000       1.00800           0
     27001 TIP3     5024     TP3      O        OW      -0.834000       16.0000           0
     27002 TIP3     5024     TP3      H1       HW       0.417000       1.00800           0
     27003 TIP3     5024     TP3      H2       HW       0.417000       1.00800           0
     27004 TIP3     5025     TP3      O        OW      -0.834000       16.0000           0
     27005 TIP3     5025     TP3      H1       HW       0.417000       1.00800           0
     27006 TIP3     5025     TP3      H2       HW       0.417000       1.00800           0
     27007 TIP3     5026     TP3      O        OW      -0.834000       16.0000           0
     27008 TIP3     5026     TP3      H1       HW       0.417000       1.00800           0
     27009 TIP3     5026     TP3      H2       HW       0.417000       1.00800           0
     27010 TIP3     5027     TP3      O        OW      -0.834000       16.0000           0
     27011 TIP3     5027     TP3      H1       HW       0.417000       1.00800           0
     27012 TIP3     5027     TP3      H2       HW       0.417000       1.00800           0
     27013 TIP3     5028     TP3      O        OW      -0.834000       16.0000           0
     27014 TIP3     5028     TP3      H1       HW       0.417000       1.00800           0
     27015 TIP3     5028     TP3      H2       HW       0.417000       1.00800           0
     27016 TIP3     5029     TP3      O        OW      -0.834000       16.0000           0
     27017 TIP3     5029     TP3      H1       HW       0.417000       1.00800           0
     27018 TIP3     5029     TP3      H2       HW       0.417000       1.00800           0
     27019 TIP3     5030     TP3      O        OW      -0.834000       16.0000           0
     27020 TIP3     5030     TP3      H1       HW       0.417000       1.00800           0
     27021 TIP3     5030     TP3      H2       HW       0.417000       1.00800           0
     27022 TIP3     5031     TP3      O        OW      -0.834000       16.0000           0
     27023 TIP3     5031     TP3      H1       HW       0.417000       1.00800           0
     27024 TIP3     5031     TP3      H2       HW       0.417000       1.00800           0
     27025 TIP3     5032     TP3      O        OW      -0.834000       16.0000           0
     27026 TIP3     5032     TP3      H1       HW       0.417000       1.00800           0
     27027 TIP3     5032     TP3      H2       HW       0.417000       1.00800           0
     27028 TIP3     5033     TP3      O        OW      -0.834000       16.0000           0
     27029 TIP3     5033     TP3      H1       HW       0.417000       1.00800           0
     27030 TIP3     5033     TP3      H2       HW       0.417000       1.00800           0
     27031 TIP3     5034     TP3      O        OW      -0.834000       16.0000           0
     27032 TIP3     5034     TP3      H1       HW       0.417000       1.00800           0
     27033 TIP3     5034     TP3      H2       HW       0.417000       1.00800           0
     27034 TIP3     5035     TP3      O        OW      -0.834000       16.0000           0
     27035 TIP3     5035     TP3      H1       HW       0.417000       1.00800           0
     27036 TIP3     5035     TP3      H2       HW       0.417000       1.00800           0
     27037 TIP3     5036     TP3      O        OW      -0.834000       16.0000           0
     27038 TIP3     5036     TP3      H1       HW       0.417000       1.00800           0
     27039 TIP3     5036     TP3      H2       HW       0.417000       1.00800           0
     27040 TIP3     5037     TP3      O        OW      -0.834000       16.0000           0
     27041 TIP3     5037     TP3      H1       HW       0.417000       1.00800           0
     27042 TIP3     5037     TP3      H2       HW       0.417000       1.00800           0
     27043 TIP3     5038     TP3      O        OW      -0.834000       16.0000           0
     27044 TIP3     5038     TP3      H1       HW       0.417000       1.00800           0
     27045 TIP3     5038     TP3      H2       HW       0.417000       1.00800           0
     27046 TIP3     5039     TP3      O        OW      -0.834000       16.0000           0
     27047 TIP3     5039     TP3      H1       HW       0.417000       1.00800           0
     27048 TIP3     5039     TP3      H2       HW       0.417000       1.00800           0
     27049 TIP3     5040     TP3      O        OW      -0.834000       16.0000           0
     27050 TIP3     5040     TP3      H1       HW       0.417000       1.00800           0
     27051 TIP3     5040     TP3      H2       HW       0.417000       1.00800           0
     27052 TIP3     5041     TP3      O        OW      -0.834000       16.0000           0
     27053 TIP3     5041     TP3      H1       HW       0.417000       1.00800           0
     27054 TIP3     5041     TP3      H2       HW       0.417000       1.00800           0
     27055 TIP3     5042     TP3      O        OW      -0.834000       16.0000           0
     27056 TIP3     5042     TP3      H1       HW       0.417000       1.00800           0
     27057 TIP3     5042     TP3      H2       HW       0.417000       1.00800           0
     27058 TIP3     5043     TP3      O        OW      -0.834000       16.0000           0
     27059 TIP3     5043     TP3      H1       HW       0.417000       1.00800           0
     27060 TIP3     5043     TP3      H2       HW       0.417000       1.00800           0
     27061 TIP3     5044     TP3      O        OW      -0.834000       16.0000           0
     27062 TIP3     5044     TP3      H1       HW       0.417000       1.00800           0
     27063 TIP3     5044     TP3      H2       HW       0.417000       1.00800           0
     27064 TIP3     5045     TP3      O        OW      -0.834000       16.0000           0
     27065 TIP3     5045     TP3      H1       HW       0.417000       1.00800           0
     27066 TIP3     5045     TP3      H2       HW       0.417000       1.00800           0
     27067 TIP3     5046     TP3      O        OW      -0.834000       16.0000           0
     27068 TIP3     5046     TP3      H1       HW       0.417000       1.00800           0
     27069 TIP3     5046     TP3      H2       HW       0.417000       1.00800           0
     27070 TIP3     5047     TP3      O        OW      -0.834000       16.0000           0
     27071 TIP3     5047     TP3      H1       HW       0.417000       1.00800           0
     27072 TIP3     5047     TP3      H2       HW       0.417000       1.00800           0
     27073 TIP3     5048     TP3      O        OW      -0.834000       16.0000           0
     27074 TIP3     5048     TP3      H1       HW       0.417000       1.00800           0
     27075 TIP3     5048     TP3      H2       HW       0.417000       1.00800           0
     27076 TIP3     5049     TP3      O        OW      -0.834000       16.0000           0
     27077 TIP3     5049     TP3      H1       HW       0.417000       1.00800           0
     27078 TIP3     5049     TP3      H2       HW       0.417000       1.00800           0
     27079 TIP3     5050     TP3      O        OW      -0.834000       16.0000           0
     27080 TIP3     5050     TP3      H1       HW       0.417000       1.00800           0
     27081 TIP3     5050     TP3      H2       HW       0.417000       1.00800           0
     27082 TIP3     5051     TP3      O        OW      -0.834000       16.0000           0
     27083 TIP3     5051     TP3      H1       HW       0.417000       1.00800           0
     27084 TIP3     5051     TP3      H2       HW       0.417000       1.00800           0
     27085 TIP3     5052     TP3      O        OW      -0.834000       16.0000           0
     27086 TIP3     5052     TP3      H1       HW       0.417000       1.00800           0
     27087 TIP3     5052     TP3      H2       HW       0.417000       1.00800           0
     27088 TIP3     5053     TP3      O        OW      -0.834000       16.0000           0
     27089 TIP3     5053     TP3      H1       HW       0.417000       1.00800           0
     27090 TIP3     5053     TP3      H2       HW       0.417000       1.00800           0
     27091 TIP3     5054     TP3      O        OW      -0.834000       16.0000           0
     27092 TIP3     5054     TP3      H1       HW       0.417000       1.00800           0
     27093 TIP3     5054     TP3      H2       HW       0.417000       1.00800           0
     27094 TIP3     5055     TP3      O        OW      -0.834000       16.0000           0
     27095 TIP3     5055     TP3      H1       HW       0.417000       1.00800           0
     27096 TIP3     5055     TP3      H2       HW       0.417000       1.00800           0
     27097 TIP3     5056     TP3      O        OW      -0.834000       16.0000           0
     27098 TIP3     5056     TP3      H1       HW       0.417000       1.00800           0
     27099 TIP3     5056     TP3      H2       HW       0.417000       1.00800           0
     27100 TIP3     5057     TP3      O        OW      -0.834000       16.0000           0
     27101 TIP3     5057     TP3      H1       HW       0.417000       1.00800           0
     27102 TIP3     5057     TP3      H2       HW       0.417000       1.00800           0
     27103 TIP3     5058     TP3      O        OW      -0.834000       16.0000           0
     27104 TIP3     5058     TP3      H1       HW       0.417000       1.00800           0
     27105 TIP3     5058     TP3      H2       HW       0.417000       1.00800           0
     27106 TIP3     5059     TP3      O        OW      -0.834000       16.0000           0
     27107 TIP3     5059     TP3      H1       HW       0.417000       1.00800           0
     27108 TIP3     5059     TP3      H2       HW       0.417000       1.00800           0
     27109 TIP3     5060     TP3      O        OW      -0.834000       16.0000           0
     27110 TIP3     5060     TP3      H1       HW       0.417000       1.00800           0
     27111 TIP3     5060     TP3      H2       HW       0.417000       1.00800           0
     27112 TIP3     5061     TP3      O        OW      -0.834000       16.0000           0
     27113 TIP3     5061     TP3      H1       HW       0.417000       1.00800           0
     27114 TIP3     5061     TP3      H2       HW       0.417000       1.00800           0
     27115 TIP3     5062     TP3      O        OW      -0.834000       16.0000           0
     27116 TIP3     5062     TP3      H1       HW       0.417000       1.00800           0
     27117 TIP3     5062     TP3      H2       HW       0.417000       1.00800           0
     27118 TIP3     5063     TP3      O        OW      -0.834000       16.0000           0
     27119 TIP3     5063     TP3      H1       HW       0.417000       1.00800           0
     27120 TIP3     5063     TP3      H2       HW       0.417000       1.00800           0
     27121 TIP3     5064     TP3      O        OW      -0.834000       16.0000           0
     27122 TIP3     5064     TP3      H1       HW       0.417000       1.00800           0
     27123 TIP3     5064     TP3      H2       HW       0.417000       1.00800           0
     27124 TIP3     5065     TP3      O        OW      -0.834000       16.0000           0
     27125 TIP3     5065     TP3      H1       HW       0.417000       1.00800           0
     27126 TIP3     5065     TP3      H2       HW       0.417000       1.00800           0
     27127 TIP3     5066     TP3      O        OW      -0.834000       16.0000           0
     27128 TIP3     5066     TP3      H1       HW       0.417000       1.00800           0
     27129 TIP3     5066     TP3      H2       HW       0.417000       1.00800           0
     27130 TIP3     5067     TP3      O        OW      -0.834000       16.0000           0
     27131 TIP3     5067     TP3      H1       HW       0.417000       1.00800           0
     27132 TIP3     5067     TP3      H2       HW       0.417000       1.00800           0
     27133 TIP3     5068     TP3      O        OW      -0.834000       16.0000           0
     27134 TIP3     5068     TP3      H1       HW       0.417000       1.00800           0
     27135 TIP3     5068     TP3      H2       HW       0.417000       1.00800           0
     27136 TIP3     5069     TP3      O        OW      -0.834000       16.0000           0
     27137 TIP3     5069     TP3      H1       HW       0.417000       1.00800           0
     27138 TIP3     5069     TP3      H2       HW       0.417000       1.00800           0
     27139 TIP3     5070     TP3      O        OW      -0.834000       16.0000           0
     27140 TIP3     5070     TP3      H1       HW       0.417000       1.00800           0
     27141 TIP3     5070     TP3      H2       HW       0.417000       1.00800           0
     27142 TIP3     5071     TP3      O        OW      -0.834000       16.0000           0
     27143 TIP3     5071     TP3      H1       HW       0.417000       1.00800           0
     27144 TIP3     5071     TP3      H2       HW       0.417000       1.00800           0
     27145 TIP3     5072     TP3      O        OW      -0.834000       16.0000           0
     27146 TIP3     5072     TP3      H1       HW       0.417000       1.00800           0
     27147 TIP3     5072     TP3      H2       HW       0.417000       1.00800           0
     27148 TIP3     5073     TP3      O        OW      -0.834000       16.0000           0
     27149 TIP3     5073     TP3      H1       HW       0.417000       1.00800           0
     27150 TIP3     5073     TP3      H2       HW       0.417000       1.00800           0
     27151 TIP3     5074     TP3      O        OW      -0.834000       16.0000           0
     27152 TIP3     5074     TP3      H1       HW       0.417000       1.00800           0
     27153 TIP3     5074     TP3      H2       HW       0.417000       1.00800           0
     27154 TIP3     5075     TP3      O        OW      -0.834000       16.0000           0
     27155 TIP3     5075     TP3      H1       HW       0.417000       1.00800           0
     27156 TIP3     5075     TP3      H2       HW       0.417000       1.00800           0
     27157 TIP3     5076     TP3      O        OW      -0.834000       16.0000           0
     27158 TIP3     5076     TP3      H1       HW       0.417000       1.00800           0
     27159 TIP3     5076     TP3      H2       HW       0.417000       1.00800           0
     27160 TIP3     5077     TP3      O        OW      -0.834000       16.0000           0
     27161 TIP3     5077     TP3      H1       HW       0.417000       1.00800           0
     27162 TIP3     5077     TP3      H2       HW       0.417000       1.00800           0
     27163 TIP3     5078     TP3      O        OW      -0.834000       16.0000           0
     27164 TIP3     5078     TP3      H1       HW       0.417000       1.00800           0
     27165 TIP3     5078     TP3      H2       HW       0.417000       1.00800           0
     27166 TIP3     5079     TP3      O        OW      -0.834000       16.0000           0
     27167 TIP3     5079     TP3      H1       HW       0.417000       1.00800           0
     27168 TIP3     5079     TP3      H2       HW       0.417000       1.00800           0
     27169 TIP3     5080     TP3      O        OW      -0.834000       16.0000           0
     27170 TIP3     5080     TP3      H1       HW       0.417000       1.00800           0
     27171 TIP3     5080     TP3      H2       HW       0.417000       1.00800           0
     27172 TIP3     5081     TP3      O        OW      -0.834000       16.0000           0
     27173 TIP3     5081     TP3      H1       HW       0.417000       1.00800           0
     27174 TIP3     5081     TP3      H2       HW       0.417000       1.00800           0
     27175 TIP3     5082     TP3      O        OW      -0.834000       16.0000           0
     27176 TIP3     5082     TP3      H1       HW       0.417000       1.00800           0
     27177 TIP3     5082     TP3      H2       HW       0.417000       1.00800           0
     27178 TIP3     5083     TP3      O        OW      -0.834000       16.0000           0
     27179 TIP3     5083     TP3      H1       HW       0.417000       1.00800           0
     27180 TIP3     5083     TP3      H2       HW       0.417000       1.00800           0
     27181 TIP3     5084     TP3      O        OW      -0.834000       16.0000           0
     27182 TIP3     5084     TP3      H1       HW       0.417000       1.00800           0
     27183 TIP3     5084     TP3      H2       HW       0.417000       1.00800           0
     27184 TIP3     5085     TP3      O        OW      -0.834000       16.0000           0
     27185 TIP3     5085     TP3      H1       HW       0.417000       1.00800           0
     27186 TIP3     5085     TP3      H2       HW       0.417000       1.00800           0
     27187 TIP3     5086     TP3      O        OW      -0.834000       16.0000           0
     27188 TIP3     5086     TP3      H1       HW       0.417000       1.00800           0
     27189 TIP3     5086     TP3      H2       HW       0.417000       1.00800           0
     27190 TIP3     5087     TP3      O        OW      -0.834000       16.0000           0
     27191 TIP3     5087     TP3      H1       HW       0.417000       1.00800           0
     27192 TIP3     5087     TP3      H2       HW       0.417000       1.00800           0
     27193 TIP3     5088     TP3      O        OW      -0.834000       16.0000           0
     27194 TIP3     5088     TP3      H1       HW       0.417000       1.00800           0
     27195 TIP3     5088     TP3      H2       HW       0.417000       1.00800           0
     27196 TIP3     5089     TP3      O        OW      -0.834000       16.0000           0
     27197 TIP3     5089     TP3      H1       HW       0.417000       1.00800           0
     27198 TIP3     5089     TP3      H2       HW       0.417000       1.00800           0
     27199 TIP3     5090     TP3      O        OW      -0.834000       16.0000           0
     27200 TIP3     5090     TP3      H1       HW       0.417000       1.00800           0
     27201 TIP3     5090     TP3      H2       HW       0.417000       1.00800           0
     27202 TIP3     5091     TP3      O        OW      -0.834000       16.0000           0
     27203 TIP3     5091     TP3      H1       HW       0.417000       1.00800           0
     27204 TIP3     5091     TP3      H2       HW       0.417000       1.00800           0
     27205 TIP3     5092     TP3      O        OW      -0.834000       16.0000           0
     27206 TIP3     5092     TP3      H1       HW       0.417000       1.00800           0
     27207 TIP3     5092     TP3      H2       HW       0.417000       1.00800           0
     27208 TIP3     5093     TP3      O        OW      -0.834000       16.0000           0
     27209 TIP3     5093     TP3      H1       HW       0.417000       1.00800           0
     27210 TIP3     5093     TP3      H2       HW       0.417000       1.00800           0
     27211 TIP3     5094     TP3      O        OW      -0.834000       16.0000           0
     27212 TIP3     5094     TP3      H1       HW       0.417000       1.00800           0
     27213 TIP3     5094     TP3      H2       HW       0.417000       1.00800           0
     27214 TIP3     5095     TP3      O        OW      -0.834000       16.0000           0
     27215 TIP3     5095     TP3      H1       HW       0.417000       1.00800           0
     27216 TIP3     5095     TP3      H2       HW       0.417000       1.00800           0
     27217 TIP3     5096     TP3      O        OW      -0.834000       16.0000           0
     27218 TIP3     5096     TP3      H1       HW       0.417000       1.00800           0
     27219 TIP3     5096     TP3      H2       HW       0.417000       1.00800           0
     27220 TIP3     5097     TP3      O        OW      -0.834000       16.0000           0
     27221 TIP3     5097     TP3      H1       HW       0.417000       1.00800           0
     27222 TIP3     5097     TP3      H2       HW       0.417000       1.00800           0
     27223 TIP3     5098     TP3      O        OW      -0.834000       16.0000           0
     27224 TIP3     5098     TP3      H1       HW       0.417000       1.00800           0
     27225 TIP3     5098     TP3      H2       HW       0.417000       1.00800           0
     27226 TIP3     5099     TP3      O        OW      -0.834000       16.0000           0
     27227 TIP3     5099     TP3      H1       HW       0.417000       1.00800           0
     27228 TIP3     5099     TP3      H2       HW       0.417000       1.00800           0
     27229 TIP3     5100     TP3      O        OW      -0.834000       16.0000           0
     27230 TIP3     5100     TP3      H1       HW       0.417000       1.00800           0
     27231 TIP3     5100     TP3      H2       HW       0.417000       1.00800           0
     27232 TIP3     5101     TP3      O        OW      -0.834000       16.0000           0
     27233 TIP3     5101     TP3      H1       HW       0.417000       1.00800           0
     27234 TIP3     5101     TP3      H2       HW       0.417000       1.00800           0
     27235 TIP3     5102     TP3      O        OW      -0.834000       16.0000           0
     27236 TIP3     5102     TP3      H1       HW       0.417000       1.00800           0
     27237 TIP3     5102     TP3      H2       HW       0.417000       1.00800           0
     27238 TIP3     5103     TP3      O        OW      -0.834000       16.0000           0
     27239 TIP3     5103     TP3      H1       HW       0.417000       1.00800           0
     27240 TIP3     5103     TP3      H2       HW       0.417000       1.00800           0
     27241 TIP3     5104     TP3      O        OW      -0.834000       16.0000           0
     27242 TIP3     5104     TP3      H1       HW       0.417000       1.00800           0
     27243 TIP3     5104     TP3      H2       HW       0.417000       1.00800           0
     27244 TIP3     5105     TP3      O        OW      -0.834000       16.0000           0
     27245 TIP3     5105     TP3      H1       HW       0.417000       1.00800           0
     27246 TIP3     5105     TP3      H2       HW       0.417000       1.00800           0
     27247 TIP3     5106     TP3      O        OW      -0.834000       16.0000           0
     27248 TIP3     5106     TP3      H1       HW       0.417000       1.00800           0
     27249 TIP3     5106     TP3      H2       HW       0.417000       1.00800           0
     27250 TIP3     5107     TP3      O        OW      -0.834000       16.0000           0
     27251 TIP3     5107     TP3      H1       HW       0.417000       1.00800           0
     27252 TIP3     5107     TP3      H2       HW       0.417000       1.00800           0
     27253 TIP3     5108     TP3      O        OW      -0.834000       16.0000           0
     27254 TIP3     5108     TP3      H1       HW       0.417000       1.00800           0
     27255 TIP3     5108     TP3      H2       HW       0.417000       1.00800           0
     27256 TIP3     5109     TP3      O        OW      -0.834000       16.0000           0
     27257 TIP3     5109     TP3      H1       HW       0.417000       1.00800           0
     27258 TIP3     5109     TP3      H2       HW       0.417000       1.00800           0
     27259 TIP3     5110     TP3      O        OW      -0.834000       16.0000           0
     27260 TIP3     5110     TP3      H1       HW       0.417000       1.00800           0
     27261 TIP3     5110     TP3      H2       HW       0.417000       1.00800           0
     27262 TIP3     5111     TP3      O        OW      -0.834000       16.0000           0
     27263 TIP3     5111     TP3      H1       HW       0.417000       1.00800           0
     27264 TIP3     5111     TP3      H2       HW       0.417000       1.00800           0
     27265 TIP3     5112     TP3      O        OW      -0.834000       16.0000           0
     27266 TIP3     5112     TP3      H1       HW       0.417000       1.00800           0
     27267 TIP3     5112     TP3      H2       HW       0.417000       1.00800           0
     27268 TIP3     5113     TP3      O        OW      -0.834000       16.0000           0
     27269 TIP3     5113     TP3      H1       HW       0.417000       1.00800           0
     27270 TIP3     5113     TP3      H2       HW       0.417000       1.00800           0
     27271 TIP3     5114     TP3      O        OW      -0.834000       16.0000           0
     27272 TIP3     5114     TP3      H1       HW       0.417000       1.00800           0
     27273 TIP3     5114     TP3      H2       HW       0.417000       1.00800           0
     27274 TIP3     5115     TP3      O        OW      -0.834000       16.0000           0
     27275 TIP3     5115     TP3      H1       HW       0.417000       1.00800           0
     27276 TIP3     5115     TP3      H2       HW       0.417000       1.00800           0
     27277 TIP3     5116     TP3      O        OW      -0.834000       16.0000           0
     27278 TIP3     5116     TP3      H1       HW       0.417000       1.00800           0
     27279 TIP3     5116     TP3      H2       HW       0.417000       1.00800           0
     27280 TIP3     5117     TP3      O        OW      -0.834000       16.0000           0
     27281 TIP3     5117     TP3      H1       HW       0.417000       1.00800           0
     27282 TIP3     5117     TP3      H2       HW       0.417000       1.00800           0
     27283 TIP3     5118     TP3      O        OW      -0.834000       16.0000           0
     27284 TIP3     5118     TP3      H1       HW       0.417000       1.00800           0
     27285 TIP3     5118     TP3      H2       HW       0.417000       1.00800           0
     27286 TIP3     5119     TP3      O        OW      -0.834000       16.0000           0
     27287 TIP3     5119     TP3      H1       HW       0.417000       1.00800           0
     27288 TIP3     5119     TP3      H2       HW       0.417000       1.00800           0
     27289 TIP3     5120     TP3      O        OW      -0.834000       16.0000           0
     27290 TIP3     5120     TP3      H1       HW       0.417000       1.00800           0
     27291 TIP3     5120     TP3      H2       HW       0.417000       1.00800           0
     27292 TIP3     5121     TP3      O        OW      -0.834000       16.0000           0
     27293 TIP3     5121     TP3      H1       HW       0.417000       1.00800           0
     27294 TIP3     5121     TP3      H2       HW       0.417000       1.00800           0
     27295 TIP3     5122     TP3      O        OW      -0.834000       16.0000           0
     27296 TIP3     5122     TP3      H1       HW       0.417000       1.00800           0
     27297 TIP3     5122     TP3      H2       HW       0.417000       1.00800           0
     27298 TIP3     5123     TP3      O        OW      -0.834000       16.0000           0
     27299 TIP3     5123     TP3      H1       HW       0.417000       1.00800           0
     27300 TIP3     5123     TP3      H2       HW       0.417000       1.00800           0
     27301 TIP3     5124     TP3      O        OW      -0.834000       16.0000           0
     27302 TIP3     5124     TP3      H1       HW       0.417000       1.00800           0
     27303 TIP3     5124     TP3      H2       HW       0.417000       1.00800           0
     27304 TIP3     5125     TP3      O        OW      -0.834000       16.0000           0
     27305 TIP3     5125     TP3      H1       HW       0.417000       1.00800           0
     27306 TIP3     5125     TP3      H2       HW       0.417000       1.00800           0
     27307 TIP3     5126     TP3      O        OW      -0.834000       16.0000           0
     27308 TIP3     5126     TP3      H1       HW       0.417000       1.00800           0
     27309 TIP3     5126     TP3      H2       HW       0.417000       1.00800           0
     27310 TIP3     5127     TP3      O        OW      -0.834000       16.0000           0
     27311 TIP3     5127     TP3      H1       HW       0.417000       1.00800           0
     27312 TIP3     5127     TP3      H2       HW       0.417000       1.00800           0
     27313 TIP3     5128     TP3      O        OW      -0.834000       16.0000           0
     27314 TIP3     5128     TP3      H1       HW       0.417000       1.00800           0
     27315 TIP3     5128     TP3      H2       HW       0.417000       1.00800           0
     27316 TIP3     5129     TP3      O        OW      -0.834000       16.0000           0
     27317 TIP3     5129     TP3      H1       HW       0.417000       1.00800           0
     27318 TIP3     5129     TP3      H2       HW       0.417000       1.00800           0
     27319 TIP3     5130     TP3      O        OW      -0.834000       16.0000           0
     27320 TIP3     5130     TP3      H1       HW       0.417000       1.00800           0
     27321 TIP3     5130     TP3      H2       HW       0.417000       1.00800           0
     27322 TIP3     5131     TP3      O        OW      -0.834000       16.0000           0
     27323 TIP3     5131     TP3      H1       HW       0.417000       1.00800           0
     27324 TIP3     5131     TP3      H2       HW       0.417000       1.00800           0
     27325 TIP3     5132     TP3      O        OW      -0.834000       16.0000           0
     27326 TIP3     5132     TP3      H1       HW       0.417000       1.00800           0
     27327 TIP3     5132     TP3      H2       HW       0.417000       1.00800           0
     27328 TIP3     5133     TP3      O        OW      -0.834000       16.0000           0
     27329 TIP3     5133     TP3      H1       HW       0.417000       1.00800           0
     27330 TIP3     5133     TP3      H2       HW       0.417000       1.00800           0
     27331 TIP3     5134     TP3      O        OW      -0.834000       16.0000           0
     27332 TIP3     5134     TP3      H1       HW       0.417000       1.00800           0
     27333 TIP3     5134     TP3      H2       HW       0.417000       1.00800           0
     27334 TIP3     5135     TP3      O        OW      -0.834000       16.0000           0
     27335 TIP3     5135     TP3      H1       HW       0.417000       1.00800           0
     27336 TIP3     5135     TP3      H2       HW       0.417000       1.00800           0
     27337 TIP3     5136     TP3      O        OW      -0.834000       16.0000           0
     27338 TIP3     5136     TP3      H1       HW       0.417000       1.00800           0
     27339 TIP3     5136     TP3      H2       HW       0.417000       1.00800           0
     27340 TIP3     5137     TP3      O        OW      -0.834000       16.0000           0
     27341 TIP3     5137     TP3      H1       HW       0.417000       1.00800           0
     27342 TIP3     5137     TP3      H2       HW       0.417000       1.00800           0
     27343 TIP3     5138     TP3      O        OW      -0.834000       16.0000           0
     27344 TIP3     5138     TP3      H1       HW       0.417000       1.00800           0
     27345 TIP3     5138     TP3      H2       HW       0.417000       1.00800           0
     27346 TIP3     5139     TP3      O        OW      -0.834000       16.0000           0
     27347 TIP3     5139     TP3      H1       HW       0.417000       1.00800           0
     27348 TIP3     5139     TP3      H2       HW       0.417000       1.00800           0
     27349 TIP3     5140     TP3      O        OW      -0.834000       16.0000           0
     27350 TIP3     5140     TP3      H1       HW       0.417000       1.00800           0
     27351 TIP3     5140     TP3      H2       HW       0.417000       1.00800           0
     27352 TIP3     5141     TP3      O        OW      -0.834000       16.0000           0
     27353 TIP3     5141     TP3      H1       HW       0.417000       1.00800           0
     27354 TIP3     5141     TP3      H2       HW       0.417000       1.00800           0
     27355 TIP3     5142     TP3      O        OW      -0.834000       16.0000           0
     27356 TIP3     5142     TP3      H1       HW       0.417000       1.00800           0
     27357 TIP3     5142     TP3      H2       HW       0.417000       1.00800           0
     27358 TIP3     5143     TP3      O        OW      -0.834000       16.0000           0
     27359 TIP3     5143     TP3      H1       HW       0.417000       1.00800           0
     27360 TIP3     5143     TP3      H2       HW       0.417000       1.00800           0
     27361 TIP3     5144     TP3      O        OW      -0.834000       16.0000           0
     27362 TIP3     5144     TP3      H1       HW       0.417000       1.00800           0
     27363 TIP3     5144     TP3      H2       HW       0.417000       1.00800           0
     27364 TIP3     5145     TP3      O        OW      -0.834000       16.0000           0
     27365 TIP3     5145     TP3      H1       HW       0.417000       1.00800           0
     27366 TIP3     5145     TP3      H2       HW       0.417000       1.00800           0
     27367 TIP3     5146     TP3      O        OW      -0.834000       16.0000           0
     27368 TIP3     5146     TP3      H1       HW       0.417000       1.00800           0
     27369 TIP3     5146     TP3      H2       HW       0.417000       1.00800           0
     27370 TIP3     5147     TP3      O        OW      -0.834000       16.0000           0
     27371 TIP3     5147     TP3      H1       HW       0.417000       1.00800           0
     27372 TIP3     5147     TP3      H2       HW       0.417000       1.00800           0
     27373 TIP3     5148     TP3      O        OW      -0.834000       16.0000           0
     27374 TIP3     5148     TP3      H1       HW       0.417000       1.00800           0
     27375 TIP3     5148     TP3      H2       HW       0.417000       1.00800           0
     27376 TIP3     5149     TP3      O        OW      -0.834000       16.0000           0
     27377 TIP3     5149     TP3      H1       HW       0.417000       1.00800           0
     27378 TIP3     5149     TP3      H2       HW       0.417000       1.00800           0
     27379 TIP3     5150     TP3      O        OW      -0.834000       16.0000           0
     27380 TIP3     5150     TP3      H1       HW       0.417000       1.00800           0
     27381 TIP3     5150     TP3      H2       HW       0.417000       1.00800           0
     27382 TIP3     5151     TP3      O        OW      -0.834000       16.0000           0
     27383 TIP3     5151     TP3      H1       HW       0.417000       1.00800           0
     27384 TIP3     5151     TP3      H2       HW       0.417000       1.00800           0
     27385 TIP3     5152     TP3      O        OW      -0.834000       16.0000           0
     27386 TIP3     5152     TP3      H1       HW       0.417000       1.00800           0
     27387 TIP3     5152     TP3      H2       HW       0.417000       1.00800           0
     27388 TIP3     5153     TP3      O        OW      -0.834000       16.0000           0
     27389 TIP3     5153     TP3      H1       HW       0.417000       1.00800           0
     27390 TIP3     5153     TP3      H2       HW       0.417000       1.00800           0
     27391 TIP3     5154     TP3      O        OW      -0.834000       16.0000           0
     27392 TIP3     5154     TP3      H1       HW       0.417000       1.00800           0
     27393 TIP3     5154     TP3      H2       HW       0.417000       1.00800           0
     27394 TIP3     5155     TP3      O        OW      -0.834000       16.0000           0
     27395 TIP3     5155     TP3      H1       HW       0.417000       1.00800           0
     27396 TIP3     5155     TP3      H2       HW       0.417000       1.00800           0
     27397 TIP3     5156     TP3      O        OW      -0.834000       16.0000           0
     27398 TIP3     5156     TP3      H1       HW       0.417000       1.00800           0
     27399 TIP3     5156     TP3      H2       HW       0.417000       1.00800           0
     27400 TIP3     5157     TP3      O        OW      -0.834000       16.0000           0
     27401 TIP3     5157     TP3      H1       HW       0.417000       1.00800           0
     27402 TIP3     5157     TP3      H2       HW       0.417000       1.00800           0
     27403 TIP3     5158     TP3      O        OW      -0.834000       16.0000           0
     27404 TIP3     5158     TP3      H1       HW       0.417000       1.00800           0
     27405 TIP3     5158     TP3      H2       HW       0.417000       1.00800           0
     27406 TIP3     5159     TP3      O        OW      -0.834000       16.0000           0
     27407 TIP3     5159     TP3      H1       HW       0.417000       1.00800           0
     27408 TIP3     5159     TP3      H2       HW       0.417000       1.00800           0
     27409 TIP3     5160     TP3      O        OW      -0.834000       16.0000           0
     27410 TIP3     5160     TP3      H1       HW       0.417000       1.00800           0
     27411 TIP3     5160     TP3      H2       HW       0.417000       1.00800           0
     27412 TIP3     5161     TP3      O        OW      -0.834000       16.0000           0
     27413 TIP3     5161     TP3      H1       HW       0.417000       1.00800           0
     27414 TIP3     5161     TP3      H2       HW       0.417000       1.00800           0
     27415 TIP3     5162     TP3      O        OW      -0.834000       16.0000           0
     27416 TIP3     5162     TP3      H1       HW       0.417000       1.00800           0
     27417 TIP3     5162     TP3      H2       HW       0.417000       1.00800           0
     27418 TIP3     5163     TP3      O        OW      -0.834000       16.0000           0
     27419 TIP3     5163     TP3      H1       HW       0.417000       1.00800           0
     27420 TIP3     5163     TP3      H2       HW       0.417000       1.00800           0
     27421 TIP3     5164     TP3      O        OW      -0.834000       16.0000           0
     27422 TIP3     5164     TP3      H1       HW       0.417000       1.00800           0
     27423 TIP3     5164     TP3      H2       HW       0.417000       1.00800           0
     27424 TIP3     5165     TP3      O        OW      -0.834000       16.0000           0
     27425 TIP3     5165     TP3      H1       HW       0.417000       1.00800           0
     27426 TIP3     5165     TP3      H2       HW       0.417000       1.00800           0
     27427 TIP3     5166     TP3      O        OW      -0.834000       16.0000           0
     27428 TIP3     5166     TP3      H1       HW       0.417000       1.00800           0
     27429 TIP3     5166     TP3      H2       HW       0.417000       1.00800           0
     27430 TIP3     5167     TP3      O        OW      -0.834000       16.0000           0
     27431 TIP3     5167     TP3      H1       HW       0.417000       1.00800           0
     27432 TIP3     5167     TP3      H2       HW       0.417000       1.00800           0
     27433 TIP3     5168     TP3      O        OW      -0.834000       16.0000           0
     27434 TIP3     5168     TP3      H1       HW       0.417000       1.00800           0
     27435 TIP3     5168     TP3      H2       HW       0.417000       1.00800           0
     27436 TIP3     5169     TP3      O        OW      -0.834000       16.0000           0
     27437 TIP3     5169     TP3      H1       HW       0.417000       1.00800           0
     27438 TIP3     5169     TP3      H2       HW       0.417000       1.00800           0
     27439 TIP3     5170     TP3      O        OW      -0.834000       16.0000           0
     27440 TIP3     5170     TP3      H1       HW       0.417000       1.00800           0
     27441 TIP3     5170     TP3      H2       HW       0.417000       1.00800           0
     27442 TIP3     5171     TP3      O        OW      -0.834000       16.0000           0
     27443 TIP3     5171     TP3      H1       HW       0.417000       1.00800           0
     27444 TIP3     5171     TP3      H2       HW       0.417000       1.00800           0
     27445 TIP3     5172     TP3      O        OW      -0.834000       16.0000           0
     27446 TIP3     5172     TP3      H1       HW       0.417000       1.00800           0
     27447 TIP3     5172     TP3      H2       HW       0.417000       1.00800           0
     27448 TIP3     5173     TP3      O        OW      -0.834000       16.0000           0
     27449 TIP3     5173     TP3      H1       HW       0.417000       1.00800           0
     27450 TIP3     5173     TP3      H2       HW       0.417000       1.00800           0
     27451 TIP3     5174     TP3      O        OW      -0.834000       16.0000           0
     27452 TIP3     5174     TP3      H1       HW       0.417000       1.00800           0
     27453 TIP3     5174     TP3      H2       HW       0.417000       1.00800           0
     27454 TIP3     5175     TP3      O        OW      -0.834000       16.0000           0
     27455 TIP3     5175     TP3      H1       HW       0.417000       1.00800           0
     27456 TIP3     5175     TP3      H2       HW       0.417000       1.00800           0
     27457 TIP3     5176     TP3      O        OW      -0.834000       16.0000           0
     27458 TIP3     5176     TP3      H1       HW       0.417000       1.00800           0
     27459 TIP3     5176     TP3      H2       HW       0.417000       1.00800           0
     27460 TIP3     5177     TP3      O        OW      -0.834000       16.0000           0
     27461 TIP3     5177     TP3      H1       HW       0.417000       1.00800           0
     27462 TIP3     5177     TP3      H2       HW       0.417000       1.00800           0
     27463 TIP3     5178     TP3      O        OW      -0.834000       16.0000           0
     27464 TIP3     5178     TP3      H1       HW       0.417000       1.00800           0
     27465 TIP3     5178     TP3      H2       HW       0.417000       1.00800           0
     27466 TIP3     5179     TP3      O        OW      -0.834000       16.0000           0
     27467 TIP3     5179     TP3      H1       HW       0.417000       1.00800           0
     27468 TIP3     5179     TP3      H2       HW       0.417000       1.00800           0
     27469 TIP3     5180     TP3      O        OW      -0.834000       16.0000           0
     27470 TIP3     5180     TP3      H1       HW       0.417000       1.00800           0
     27471 TIP3     5180     TP3      H2       HW       0.417000       1.00800           0
     27472 TIP3     5181     TP3      O        OW      -0.834000       16.0000           0
     27473 TIP3     5181     TP3      H1       HW       0.417000       1.00800           0
     27474 TIP3     5181     TP3      H2       HW       0.417000       1.00800           0
     27475 TIP3     5182     TP3      O        OW      -0.834000       16.0000           0
     27476 TIP3     5182     TP3      H1       HW       0.417000       1.00800           0
     27477 TIP3     5182     TP3      H2       HW       0.417000       1.00800           0
     27478 TIP3     5183     TP3      O        OW      -0.834000       16.0000           0
     27479 TIP3     5183     TP3      H1       HW       0.417000       1.00800           0
     27480 TIP3     5183     TP3      H2       HW       0.417000       1.00800           0
     27481 TIP3     5184     TP3      O        OW      -0.834000       16.0000           0
     27482 TIP3     5184     TP3      H1       HW       0.417000       1.00800           0
     27483 TIP3     5184     TP3      H2       HW       0.417000       1.00800           0
     27484 TIP3     5185     TP3      O        OW      -0.834000       16.0000           0
     27485 TIP3     5185     TP3      H1       HW       0.417000       1.00800           0
     27486 TIP3     5185     TP3      H2       HW       0.417000       1.00800           0
     27487 TIP3     5186     TP3      O        OW      -0.834000       16.0000           0
     27488 TIP3     5186     TP3      H1       HW       0.417000       1.00800           0
     27489 TIP3     5186     TP3      H2       HW       0.417000       1.00800           0
     27490 TIP3     5187     TP3      O        OW      -0.834000       16.0000           0
     27491 TIP3     5187     TP3      H1       HW       0.417000       1.00800           0
     27492 TIP3     5187     TP3      H2       HW       0.417000       1.00800           0
     27493 TIP3     5188     TP3      O        OW      -0.834000       16.0000           0
     27494 TIP3     5188     TP3      H1       HW       0.417000       1.00800           0
     27495 TIP3     5188     TP3      H2       HW       0.417000       1.00800           0
     27496 TIP3     5189     TP3      O        OW      -0.834000       16.0000           0
     27497 TIP3     5189     TP3      H1       HW       0.417000       1.00800           0
     27498 TIP3     5189     TP3      H2       HW       0.417000       1.00800           0
     27499 TIP3     5190     TP3      O        OW      -0.834000       16.0000           0
     27500 TIP3     5190     TP3      H1       HW       0.417000       1.00800           0
     27501 TIP3     5190     TP3      H2       HW       0.417000       1.00800           0
     27502 TIP3     5191     TP3      O        OW      -0.834000       16.0000           0
     27503 TIP3     5191     TP3      H1       HW       0.417000       1.00800           0
     27504 TIP3     5191     TP3      H2       HW       0.417000       1.00800           0
     27505 TIP3     5192     TP3      O        OW      -0.834000       16.0000           0
     27506 TIP3     5192     TP3      H1       HW       0.417000       1.00800           0
     27507 TIP3     5192     TP3      H2       HW       0.417000       1.00800           0
     27508 TIP3     5193     TP3      O        OW      -0.834000       16.0000           0
     27509 TIP3     5193     TP3      H1       HW       0.417000       1.00800           0
     27510 TIP3     5193     TP3      H2       HW       0.417000       1.00800           0
     27511 TIP3     5194     TP3      O        OW      -0.834000       16.0000           0
     27512 TIP3     5194     TP3      H1       HW       0.417000       1.00800           0
     27513 TIP3     5194     TP3      H2       HW       0.417000       1.00800           0
     27514 TIP3     5195     TP3      O        OW      -0.834000       16.0000           0
     27515 TIP3     5195     TP3      H1       HW       0.417000       1.00800           0
     27516 TIP3     5195     TP3      H2       HW       0.417000       1.00800           0
     27517 TIP3     5196     TP3      O        OW      -0.834000       16.0000           0
     27518 TIP3     5196     TP3      H1       HW       0.417000       1.00800           0
     27519 TIP3     5196     TP3      H2       HW       0.417000       1.00800           0
     27520 TIP3     5197     TP3      O        OW      -0.834000       16.0000           0
     27521 TIP3     5197     TP3      H1       HW       0.417000       1.00800           0
     27522 TIP3     5197     TP3      H2       HW       0.417000       1.00800           0
     27523 TIP3     5198     TP3      O        OW      -0.834000       16.0000           0
     27524 TIP3     5198     TP3      H1       HW       0.417000       1.00800           0
     27525 TIP3     5198     TP3      H2       HW       0.417000       1.00800           0
     27526 TIP3     5199     TP3      O        OW      -0.834000       16.0000           0
     27527 TIP3     5199     TP3      H1       HW       0.417000       1.00800           0
     27528 TIP3     5199     TP3      H2       HW       0.417000       1.00800           0
     27529 TIP3     5200     TP3      O        OW      -0.834000       16.0000           0
     27530 TIP3     5200     TP3      H1       HW       0.417000       1.00800           0
     27531 TIP3     5200     TP3      H2       HW       0.417000       1.00800           0
     27532 TIP3     5201     TP3      O        OW      -0.834000       16.0000           0
     27533 TIP3     5201     TP3      H1       HW       0.417000       1.00800           0
     27534 TIP3     5201     TP3      H2       HW       0.417000       1.00800           0
     27535 TIP3     5202     TP3      O        OW      -0.834000       16.0000           0
     27536 TIP3     5202     TP3      H1       HW       0.417000       1.00800           0
     27537 TIP3     5202     TP3      H2       HW       0.417000       1.00800           0
     27538 TIP3     5203     TP3      O        OW      -0.834000       16.0000           0
     27539 TIP3     5203     TP3      H1       HW       0.417000       1.00800           0
     27540 TIP3     5203     TP3      H2       HW       0.417000       1.00800           0
     27541 TIP3     5204     TP3      O        OW      -0.834000       16.0000           0
     27542 TIP3     5204     TP3      H1       HW       0.417000       1.00800           0
     27543 TIP3     5204     TP3      H2       HW       0.417000       1.00800           0
     27544 TIP3     5205     TP3      O        OW      -0.834000       16.0000           0
     27545 TIP3     5205     TP3      H1       HW       0.417000       1.00800           0
     27546 TIP3     5205     TP3      H2       HW       0.417000       1.00800           0
     27547 TIP3     5206     TP3      O        OW      -0.834000       16.0000           0
     27548 TIP3     5206     TP3      H1       HW       0.417000       1.00800           0
     27549 TIP3     5206     TP3      H2       HW       0.417000       1.00800           0
     27550 TIP3     5207     TP3      O        OW      -0.834000       16.0000           0
     27551 TIP3     5207     TP3      H1       HW       0.417000       1.00800           0
     27552 TIP3     5207     TP3      H2       HW       0.417000       1.00800           0
     27553 TIP3     5208     TP3      O        OW      -0.834000       16.0000           0
     27554 TIP3     5208     TP3      H1       HW       0.417000       1.00800           0
     27555 TIP3     5208     TP3      H2       HW       0.417000       1.00800           0
     27556 TIP3     5209     TP3      O        OW      -0.834000       16.0000           0
     27557 TIP3     5209     TP3      H1       HW       0.417000       1.00800           0
     27558 TIP3     5209     TP3      H2       HW       0.417000       1.00800           0
     27559 TIP3     5210     TP3      O        OW      -0.834000       16.0000           0
     27560 TIP3     5210     TP3      H1       HW       0.417000       1.00800           0
     27561 TIP3     5210     TP3      H2       HW       0.417000       1.00800           0
     27562 TIP3     5211     TP3      O        OW      -0.834000       16.0000           0
     27563 TIP3     5211     TP3      H1       HW       0.417000       1.00800           0
     27564 TIP3     5211     TP3      H2       HW       0.417000       1.00800           0
     27565 TIP3     5212     TP3      O        OW      -0.834000       16.0000           0
     27566 TIP3     5212     TP3      H1       HW       0.417000       1.00800           0
     27567 TIP3     5212     TP3      H2       HW       0.417000       1.00800           0
     27568 TIP3     5213     TP3      O        OW      -0.834000       16.0000           0
     27569 TIP3     5213     TP3      H1       HW       0.417000       1.00800           0
     27570 TIP3     5213     TP3      H2       HW       0.417000       1.00800           0
     27571 TIP3     5214     TP3      O        OW      -0.834000       16.0000           0
     27572 TIP3     5214     TP3      H1       HW       0.417000       1.00800           0
     27573 TIP3     5214     TP3      H2       HW       0.417000       1.00800           0
     27574 TIP3     5215     TP3      O        OW      -0.834000       16.0000           0
     27575 TIP3     5215     TP3      H1       HW       0.417000       1.00800           0
     27576 TIP3     5215     TP3      H2       HW       0.417000       1.00800           0
     27577 TIP3     5216     TP3      O        OW      -0.834000       16.0000           0
     27578 TIP3     5216     TP3      H1       HW       0.417000       1.00800           0
     27579 TIP3     5216     TP3      H2       HW       0.417000       1.00800           0
     27580 TIP3     5217     TP3      O        OW      -0.834000       16.0000           0
     27581 TIP3     5217     TP3      H1       HW       0.417000       1.00800           0
     27582 TIP3     5217     TP3      H2       HW       0.417000       1.00800           0
     27583 TIP3     5218     TP3      O        OW      -0.834000       16.0000           0
     27584 TIP3     5218     TP3      H1       HW       0.417000       1.00800           0
     27585 TIP3     5218     TP3      H2       HW       0.417000       1.00800           0
     27586 TIP3     5219     TP3      O        OW      -0.834000       16.0000           0
     27587 TIP3     5219     TP3      H1       HW       0.417000       1.00800           0
     27588 TIP3     5219     TP3      H2       HW       0.417000       1.00800           0
     27589 TIP3     5220     TP3      O        OW      -0.834000       16.0000           0
     27590 TIP3     5220     TP3      H1       HW       0.417000       1.00800           0
     27591 TIP3     5220     TP3      H2       HW       0.417000       1.00800           0
     27592 TIP3     5221     TP3      O        OW      -0.834000       16.0000           0
     27593 TIP3     5221     TP3      H1       HW       0.417000       1.00800           0
     27594 TIP3     5221     TP3      H2       HW       0.417000       1.00800           0
     27595 TIP3     5222     TP3      O        OW      -0.834000       16.0000           0
     27596 TIP3     5222     TP3      H1       HW       0.417000       1.00800           0
     27597 TIP3     5222     TP3      H2       HW       0.417000       1.00800           0
     27598 TIP3     5223     TP3      O        OW      -0.834000       16.0000           0
     27599 TIP3     5223     TP3      H1       HW       0.417000       1.00800           0
     27600 TIP3     5223     TP3      H2       HW       0.417000       1.00800           0
     27601 TIP3     5224     TP3      O        OW      -0.834000       16.0000           0
     27602 TIP3     5224     TP3      H1       HW       0.417000       1.00800           0
     27603 TIP3     5224     TP3      H2       HW       0.417000       1.00800           0
     27604 TIP3     5225     TP3      O        OW      -0.834000       16.0000           0
     27605 TIP3     5225     TP3      H1       HW       0.417000       1.00800           0
     27606 TIP3     5225     TP3      H2       HW       0.417000       1.00800           0
     27607 TIP3     5226     TP3      O        OW      -0.834000       16.0000           0
     27608 TIP3     5226     TP3      H1       HW       0.417000       1.00800           0
     27609 TIP3     5226     TP3      H2       HW       0.417000       1.00800           0
     27610 TIP3     5227     TP3      O        OW      -0.834000       16.0000           0
     27611 TIP3     5227     TP3      H1       HW       0.417000       1.00800           0
     27612 TIP3     5227     TP3      H2       HW       0.417000       1.00800           0
     27613 TIP3     5228     TP3      O        OW      -0.834000       16.0000           0
     27614 TIP3     5228     TP3      H1       HW       0.417000       1.00800           0
     27615 TIP3     5228     TP3      H2       HW       0.417000       1.00800           0
     27616 TIP3     5229     TP3      O        OW      -0.834000       16.0000           0
     27617 TIP3     5229     TP3      H1       HW       0.417000       1.00800           0
     27618 TIP3     5229     TP3      H2       HW       0.417000       1.00800           0
     27619 TIP3     5230     TP3      O        OW      -0.834000       16.0000           0
     27620 TIP3     5230     TP3      H1       HW       0.417000       1.00800           0
     27621 TIP3     5230     TP3      H2       HW       0.417000       1.00800           0
     27622 TIP3     5231     TP3      O        OW      -0.834000       16.0000           0
     27623 TIP3     5231     TP3      H1       HW       0.417000       1.00800           0
     27624 TIP3     5231     TP3      H2       HW       0.417000       1.00800           0
     27625 TIP3     5232     TP3      O        OW      -0.834000       16.0000           0
     27626 TIP3     5232     TP3      H1       HW       0.417000       1.00800           0
     27627 TIP3     5232     TP3      H2       HW       0.417000       1.00800           0
     27628 TIP3     5233     TP3      O        OW      -0.834000       16.0000           0
     27629 TIP3     5233     TP3      H1       HW       0.417000       1.00800           0
     27630 TIP3     5233     TP3      H2       HW       0.417000       1.00800           0
     27631 TIP3     5234     TP3      O        OW      -0.834000       16.0000           0
     27632 TIP3     5234     TP3      H1       HW       0.417000       1.00800           0
     27633 TIP3     5234     TP3      H2       HW       0.417000       1.00800           0
     27634 TIP3     5235     TP3      O        OW      -0.834000       16.0000           0
     27635 TIP3     5235     TP3      H1       HW       0.417000       1.00800           0
     27636 TIP3     5235     TP3      H2       HW       0.417000       1.00800           0
     27637 TIP3     5236     TP3      O        OW      -0.834000       16.0000           0
     27638 TIP3     5236     TP3      H1       HW       0.417000       1.00800           0
     27639 TIP3     5236     TP3      H2       HW       0.417000       1.00800           0
     27640 TIP3     5237     TP3      O        OW      -0.834000       16.0000           0
     27641 TIP3     5237     TP3      H1       HW       0.417000       1.00800           0
     27642 TIP3     5237     TP3      H2       HW       0.417000       1.00800           0
     27643 TIP3     5238     TP3      O        OW      -0.834000       16.0000           0
     27644 TIP3     5238     TP3      H1       HW       0.417000       1.00800           0
     27645 TIP3     5238     TP3      H2       HW       0.417000       1.00800           0
     27646 TIP3     5239     TP3      O        OW      -0.834000       16.0000           0
     27647 TIP3     5239     TP3      H1       HW       0.417000       1.00800           0
     27648 TIP3     5239     TP3      H2       HW       0.417000       1.00800           0
     27649 TIP3     5240     TP3      O        OW      -0.834000       16.0000           0
     27650 TIP3     5240     TP3      H1       HW       0.417000       1.00800           0
     27651 TIP3     5240     TP3      H2       HW       0.417000       1.00800           0
     27652 TIP3     5241     TP3      O        OW      -0.834000       16.0000           0
     27653 TIP3     5241     TP3      H1       HW       0.417000       1.00800           0
     27654 TIP3     5241     TP3      H2       HW       0.417000       1.00800           0
     27655 TIP3     5242     TP3      O        OW      -0.834000       16.0000           0
     27656 TIP3     5242     TP3      H1       HW       0.417000       1.00800           0
     27657 TIP3     5242     TP3      H2       HW       0.417000       1.00800           0
     27658 TIP3     5243     TP3      O        OW      -0.834000       16.0000           0
     27659 TIP3     5243     TP3      H1       HW       0.417000       1.00800           0
     27660 TIP3     5243     TP3      H2       HW       0.417000       1.00800           0
     27661 TIP3     5244     TP3      O        OW      -0.834000       16.0000           0
     27662 TIP3     5244     TP3      H1       HW       0.417000       1.00800           0
     27663 TIP3     5244     TP3      H2       HW       0.417000       1.00800           0
     27664 TIP3     5245     TP3      O        OW      -0.834000       16.0000           0
     27665 TIP3     5245     TP3      H1       HW       0.417000       1.00800           0
     27666 TIP3     5245     TP3      H2       HW       0.417000       1.00800           0
     27667 TIP3     5246     TP3      O        OW      -0.834000       16.0000           0
     27668 TIP3     5246     TP3      H1       HW       0.417000       1.00800           0
     27669 TIP3     5246     TP3      H2       HW       0.417000       1.00800           0
     27670 TIP3     5247     TP3      O        OW      -0.834000       16.0000           0
     27671 TIP3     5247     TP3      H1       HW       0.417000       1.00800           0
     27672 TIP3     5247     TP3      H2       HW       0.417000       1.00800           0
     27673 TIP3     5248     TP3      O        OW      -0.834000       16.0000           0
     27674 TIP3     5248     TP3      H1       HW       0.417000       1.00800           0
     27675 TIP3     5248     TP3      H2       HW       0.417000       1.00800           0
     27676 TIP3     5249     TP3      O        OW      -0.834000       16.0000           0
     27677 TIP3     5249     TP3      H1       HW       0.417000       1.00800           0
     27678 TIP3     5249     TP3      H2       HW       0.417000       1.00800           0
     27679 TIP3     5250     TP3      O        OW      -0.834000       16.0000           0
     27680 TIP3     5250     TP3      H1       HW       0.417000       1.00800           0
     27681 TIP3     5250     TP3      H2       HW       0.417000       1.00800           0
     27682 TIP3     5251     TP3      O        OW      -0.834000       16.0000           0
     27683 TIP3     5251     TP3      H1       HW       0.417000       1.00800           0
     27684 TIP3     5251     TP3      H2       HW       0.417000       1.00800           0
     27685 TIP3     5252     TP3      O        OW      -0.834000       16.0000           0
     27686 TIP3     5252     TP3      H1       HW       0.417000       1.00800           0
     27687 TIP3     5252     TP3      H2       HW       0.417000       1.00800           0
     27688 TIP3     5253     TP3      O        OW      -0.834000       16.0000           0
     27689 TIP3     5253     TP3      H1       HW       0.417000       1.00800           0
     27690 TIP3     5253     TP3      H2       HW       0.417000       1.00800           0
     27691 TIP3     5254     TP3      O        OW      -0.834000       16.0000           0
     27692 TIP3     5254     TP3      H1       HW       0.417000       1.00800           0
     27693 TIP3     5254     TP3      H2       HW       0.417000       1.00800           0
     27694 TIP3     5255     TP3      O        OW      -0.834000       16.0000           0
     27695 TIP3     5255     TP3      H1       HW       0.417000       1.00800           0
     27696 TIP3     5255     TP3      H2       HW       0.417000       1.00800           0
     27697 TIP3     5256     TP3      O        OW      -0.834000       16.0000           0
     27698 TIP3     5256     TP3      H1       HW       0.417000       1.00800           0
     27699 TIP3     5256     TP3      H2       HW       0.417000       1.00800           0
     27700 TIP3     5257     TP3      O        OW      -0.834000       16.0000           0
     27701 TIP3     5257     TP3      H1       HW       0.417000       1.00800           0
     27702 TIP3     5257     TP3      H2       HW       0.417000       1.00800           0
     27703 TIP3     5258     TP3      O        OW      -0.834000       16.0000           0
     27704 TIP3     5258     TP3      H1       HW       0.417000       1.00800           0
     27705 TIP3     5258     TP3      H2       HW       0.417000       1.00800           0
     27706 TIP3     5259     TP3      O        OW      -0.834000       16.0000           0
     27707 TIP3     5259     TP3      H1       HW       0.417000       1.00800           0
     27708 TIP3     5259     TP3      H2       HW       0.417000       1.00800           0
     27709 TIP3     5260     TP3      O        OW      -0.834000       16.0000           0
     27710 TIP3     5260     TP3      H1       HW       0.417000       1.00800           0
     27711 TIP3     5260     TP3      H2       HW       0.417000       1.00800           0
     27712 TIP3     5261     TP3      O        OW      -0.834000       16.0000           0
     27713 TIP3     5261     TP3      H1       HW       0.417000       1.00800           0
     27714 TIP3     5261     TP3      H2       HW       0.417000       1.00800           0
     27715 TIP3     5262     TP3      O        OW      -0.834000       16.0000           0
     27716 TIP3     5262     TP3      H1       HW       0.417000       1.00800           0
     27717 TIP3     5262     TP3      H2       HW       0.417000       1.00800           0
     27718 TIP3     5263     TP3      O        OW      -0.834000       16.0000           0
     27719 TIP3     5263     TP3      H1       HW       0.417000       1.00800           0
     27720 TIP3     5263     TP3      H2       HW       0.417000       1.00800           0
     27721 TIP3     5264     TP3      O        OW      -0.834000       16.0000           0
     27722 TIP3     5264     TP3      H1       HW       0.417000       1.00800           0
     27723 TIP3     5264     TP3      H2       HW       0.417000       1.00800           0
     27724 TIP3     5265     TP3      O        OW      -0.834000       16.0000           0
     27725 TIP3     5265     TP3      H1       HW       0.417000       1.00800           0
     27726 TIP3     5265     TP3      H2       HW       0.417000       1.00800           0
     27727 TIP3     5266     TP3      O        OW      -0.834000       16.0000           0
     27728 TIP3     5266     TP3      H1       HW       0.417000       1.00800           0
     27729 TIP3     5266     TP3      H2       HW       0.417000       1.00800           0
     27730 TIP3     5267     TP3      O        OW      -0.834000       16.0000           0
     27731 TIP3     5267     TP3      H1       HW       0.417000       1.00800           0
     27732 TIP3     5267     TP3      H2       HW       0.417000       1.00800           0
     27733 TIP3     5268     TP3      O        OW      -0.834000       16.0000           0
     27734 TIP3     5268     TP3      H1       HW       0.417000       1.00800           0
     27735 TIP3     5268     TP3      H2       HW       0.417000       1.00800           0
     27736 TIP3     5269     TP3      O        OW      -0.834000       16.0000           0
     27737 TIP3     5269     TP3      H1       HW       0.417000       1.00800           0
     27738 TIP3     5269     TP3      H2       HW       0.417000       1.00800           0
     27739 TIP3     5270     TP3      O        OW      -0.834000       16.0000           0
     27740 TIP3     5270     TP3      H1       HW       0.417000       1.00800           0
     27741 TIP3     5270     TP3      H2       HW       0.417000       1.00800           0
     27742 TIP3     5271     TP3      O        OW      -0.834000       16.0000           0
     27743 TIP3     5271     TP3      H1       HW       0.417000       1.00800           0
     27744 TIP3     5271     TP3      H2       HW       0.417000       1.00800           0
     27745 TIP3     5272     TP3      O        OW      -0.834000       16.0000           0
     27746 TIP3     5272     TP3      H1       HW       0.417000       1.00800           0
     27747 TIP3     5272     TP3      H2       HW       0.417000       1.00800           0
     27748 TIP3     5273     TP3      O        OW      -0.834000       16.0000           0
     27749 TIP3     5273     TP3      H1       HW       0.417000       1.00800           0
     27750 TIP3     5273     TP3      H2       HW       0.417000       1.00800           0
     27751 TIP3     5274     TP3      O        OW      -0.834000       16.0000           0
     27752 TIP3     5274     TP3      H1       HW       0.417000       1.00800           0
     27753 TIP3     5274     TP3      H2       HW       0.417000       1.00800           0
     27754 TIP3     5275     TP3      O        OW      -0.834000       16.0000           0
     27755 TIP3     5275     TP3      H1       HW       0.417000       1.00800           0
     27756 TIP3     5275     TP3      H2       HW       0.417000       1.00800           0
     27757 TIP3     5276     TP3      O        OW      -0.834000       16.0000           0
     27758 TIP3     5276     TP3      H1       HW       0.417000       1.00800           0
     27759 TIP3     5276     TP3      H2       HW       0.417000       1.00800           0
     27760 TIP3     5277     TP3      O        OW      -0.834000       16.0000           0
     27761 TIP3     5277     TP3      H1       HW       0.417000       1.00800           0
     27762 TIP3     5277     TP3      H2       HW       0.417000       1.00800           0
     27763 TIP3     5278     TP3      O        OW      -0.834000       16.0000           0
     27764 TIP3     5278     TP3      H1       HW       0.417000       1.00800           0
     27765 TIP3     5278     TP3      H2       HW       0.417000       1.00800           0
     27766 TIP3     5279     TP3      O        OW      -0.834000       16.0000           0
     27767 TIP3     5279     TP3      H1       HW       0.417000       1.00800           0
     27768 TIP3     5279     TP3      H2       HW       0.417000       1.00800           0
     27769 TIP3     5280     TP3      O        OW      -0.834000       16.0000           0
     27770 TIP3     5280     TP3      H1       HW       0.417000       1.00800           0
     27771 TIP3     5280     TP3      H2       HW       0.417000       1.00800           0
     27772 TIP3     5281     TP3      O        OW      -0.834000       16.0000           0
     27773 TIP3     5281     TP3      H1       HW       0.417000       1.00800           0
     27774 TIP3     5281     TP3      H2       HW       0.417000       1.00800           0
     27775 TIP3     5282     TP3      O        OW      -0.834000       16.0000           0
     27776 TIP3     5282     TP3      H1       HW       0.417000       1.00800           0
     27777 TIP3     5282     TP3      H2       HW       0.417000       1.00800           0
     27778 TIP3     5283     TP3      O        OW      -0.834000       16.0000           0
     27779 TIP3     5283     TP3      H1       HW       0.417000       1.00800           0
     27780 TIP3     5283     TP3      H2       HW       0.417000       1.00800           0
     27781 TIP3     5284     TP3      O        OW      -0.834000       16.0000           0
     27782 TIP3     5284     TP3      H1       HW       0.417000       1.00800           0
     27783 TIP3     5284     TP3      H2       HW       0.417000       1.00800           0
     27784 TIP3     5285     TP3      O        OW      -0.834000       16.0000           0
     27785 TIP3     5285     TP3      H1       HW       0.417000       1.00800           0
     27786 TIP3     5285     TP3      H2       HW       0.417000       1.00800           0
     27787 TIP3     5286     TP3      O        OW      -0.834000       16.0000           0
     27788 TIP3     5286     TP3      H1       HW       0.417000       1.00800           0
     27789 TIP3     5286     TP3      H2       HW       0.417000       1.00800           0
     27790 TIP3     5287     TP3      O        OW      -0.834000       16.0000           0
     27791 TIP3     5287     TP3      H1       HW       0.417000       1.00800           0
     27792 TIP3     5287     TP3      H2       HW       0.417000       1.00800           0
     27793 TIP3     5288     TP3      O        OW      -0.834000       16.0000           0
     27794 TIP3     5288     TP3      H1       HW       0.417000       1.00800           0
     27795 TIP3     5288     TP3      H2       HW       0.417000       1.00800           0
     27796 TIP3     5289     TP3      O        OW      -0.834000       16.0000           0
     27797 TIP3     5289     TP3      H1       HW       0.417000       1.00800           0
     27798 TIP3     5289     TP3      H2       HW       0.417000       1.00800           0
     27799 TIP3     5290     TP3      O        OW      -0.834000       16.0000           0
     27800 TIP3     5290     TP3      H1       HW       0.417000       1.00800           0
     27801 TIP3     5290     TP3      H2       HW       0.417000       1.00800           0
     27802 TIP3     5291     TP3      O        OW      -0.834000       16.0000           0
     27803 TIP3     5291     TP3      H1       HW       0.417000       1.00800           0
     27804 TIP3     5291     TP3      H2       HW       0.417000       1.00800           0
     27805 TIP3     5292     TP3      O        OW      -0.834000       16.0000           0
     27806 TIP3     5292     TP3      H1       HW       0.417000       1.00800           0
     27807 TIP3     5292     TP3      H2       HW       0.417000       1.00800           0
     27808 TIP3     5293     TP3      O        OW      -0.834000       16.0000           0
     27809 TIP3     5293     TP3      H1       HW       0.417000       1.00800           0
     27810 TIP3     5293     TP3      H2       HW       0.417000       1.00800           0
     27811 TIP3     5294     TP3      O        OW      -0.834000       16.0000           0
     27812 TIP3     5294     TP3      H1       HW       0.417000       1.00800           0
     27813 TIP3     5294     TP3      H2       HW       0.417000       1.00800           0
     27814 TIP3     5295     TP3      O        OW      -0.834000       16.0000           0
     27815 TIP3     5295     TP3      H1       HW       0.417000       1.00800           0
     27816 TIP3     5295     TP3      H2       HW       0.417000       1.00800           0
     27817 TIP3     5296     TP3      O        OW      -0.834000       16.0000           0
     27818 TIP3     5296     TP3      H1       HW       0.417000       1.00800           0
     27819 TIP3     5296     TP3      H2       HW       0.417000       1.00800           0
     27820 TIP3     5297     TP3      O        OW      -0.834000       16.0000           0
     27821 TIP3     5297     TP3      H1       HW       0.417000       1.00800           0
     27822 TIP3     5297     TP3      H2       HW       0.417000       1.00800           0
     27823 TIP3     5298     TP3      O        OW      -0.834000       16.0000           0
     27824 TIP3     5298     TP3      H1       HW       0.417000       1.00800           0
     27825 TIP3     5298     TP3      H2       HW       0.417000       1.00800           0
     27826 TIP3     5299     TP3      O        OW      -0.834000       16.0000           0
     27827 TIP3     5299     TP3      H1       HW       0.417000       1.00800           0
     27828 TIP3     5299     TP3      H2       HW       0.417000       1.00800           0
     27829 TIP3     5300     TP3      O        OW      -0.834000       16.0000           0
     27830 TIP3     5300     TP3      H1       HW       0.417000       1.00800           0
     27831 TIP3     5300     TP3      H2       HW       0.417000       1.00800           0
     27832 TIP3     5301     TP3      O        OW      -0.834000       16.0000           0
     27833 TIP3     5301     TP3      H1       HW       0.417000       1.00800           0
     27834 TIP3     5301     TP3      H2       HW       0.417000       1.00800           0
     27835 TIP3     5302     TP3      O        OW      -0.834000       16.0000           0
     27836 TIP3     5302     TP3      H1       HW       0.417000       1.00800           0
     27837 TIP3     5302     TP3      H2       HW       0.417000       1.00800           0
     27838 TIP3     5303     TP3      O        OW      -0.834000       16.0000           0
     27839 TIP3     5303     TP3      H1       HW       0.417000       1.00800           0
     27840 TIP3     5303     TP3      H2       HW       0.417000       1.00800           0
     27841 TIP3     5304     TP3      O        OW      -0.834000       16.0000           0
     27842 TIP3     5304     TP3      H1       HW       0.417000       1.00800           0
     27843 TIP3     5304     TP3      H2       HW       0.417000       1.00800           0
     27844 TIP3     5305     TP3      O        OW      -0.834000       16.0000           0
     27845 TIP3     5305     TP3      H1       HW       0.417000       1.00800           0
     27846 TIP3     5305     TP3      H2       HW       0.417000       1.00800           0
     27847 TIP3     5306     TP3      O        OW      -0.834000       16.0000           0
     27848 TIP3     5306     TP3      H1       HW       0.417000       1.00800           0
     27849 TIP3     5306     TP3      H2       HW       0.417000       1.00800           0
     27850 TIP3     5307     TP3      O        OW      -0.834000       16.0000           0
     27851 TIP3     5307     TP3      H1       HW       0.417000       1.00800           0
     27852 TIP3     5307     TP3      H2       HW       0.417000       1.00800           0
     27853 TIP3     5308     TP3      O        OW      -0.834000       16.0000           0
     27854 TIP3     5308     TP3      H1       HW       0.417000       1.00800           0
     27855 TIP3     5308     TP3      H2       HW       0.417000       1.00800           0
     27856 TIP3     5309     TP3      O        OW      -0.834000       16.0000           0
     27857 TIP3     5309     TP3      H1       HW       0.417000       1.00800           0
     27858 TIP3     5309     TP3      H2       HW       0.417000       1.00800           0
     27859 TIP3     5310     TP3      O        OW      -0.834000       16.0000           0
     27860 TIP3     5310     TP3      H1       HW       0.417000       1.00800           0
     27861 TIP3     5310     TP3      H2       HW       0.417000       1.00800           0
     27862 TIP3     5311     TP3      O        OW      -0.834000       16.0000           0
     27863 TIP3     5311     TP3      H1       HW       0.417000       1.00800           0
     27864 TIP3     5311     TP3      H2       HW       0.417000       1.00800           0
     27865 TIP3     5312     TP3      O        OW      -0.834000       16.0000           0
     27866 TIP3     5312     TP3      H1       HW       0.417000       1.00800           0
     27867 TIP3     5312     TP3      H2       HW       0.417000       1.00800           0
     27868 TIP3     5313     TP3      O        OW      -0.834000       16.0000           0
     27869 TIP3     5313     TP3      H1       HW       0.417000       1.00800           0
     27870 TIP3     5313     TP3      H2       HW       0.417000       1.00800           0
     27871 TIP3     5314     TP3      O        OW      -0.834000       16.0000           0
     27872 TIP3     5314     TP3      H1       HW       0.417000       1.00800           0
     27873 TIP3     5314     TP3      H2       HW       0.417000       1.00800           0
     27874 TIP3     5315     TP3      O        OW      -0.834000       16.0000           0
     27875 TIP3     5315     TP3      H1       HW       0.417000       1.00800           0
     27876 TIP3     5315     TP3      H2       HW       0.417000       1.00800           0
     27877 TIP3     5316     TP3      O        OW      -0.834000       16.0000           0
     27878 TIP3     5316     TP3      H1       HW       0.417000       1.00800           0
     27879 TIP3     5316     TP3      H2       HW       0.417000       1.00800           0
     27880 TIP3     5317     TP3      O        OW      -0.834000       16.0000           0
     27881 TIP3     5317     TP3      H1       HW       0.417000       1.00800           0
     27882 TIP3     5317     TP3      H2       HW       0.417000       1.00800           0
     27883 TIP3     5318     TP3      O        OW      -0.834000       16.0000           0
     27884 TIP3     5318     TP3      H1       HW       0.417000       1.00800           0
     27885 TIP3     5318     TP3      H2       HW       0.417000       1.00800           0
     27886 TIP3     5319     TP3      O        OW      -0.834000       16.0000           0
     27887 TIP3     5319     TP3      H1       HW       0.417000       1.00800           0
     27888 TIP3     5319     TP3      H2       HW       0.417000       1.00800           0
     27889 TIP3     5320     TP3      O        OW      -0.834000       16.0000           0
     27890 TIP3     5320     TP3      H1       HW       0.417000       1.00800           0
     27891 TIP3     5320     TP3      H2       HW       0.417000       1.00800           0
     27892 TIP3     5321     TP3      O        OW      -0.834000       16.0000           0
     27893 TIP3     5321     TP3      H1       HW       0.417000       1.00800           0
     27894 TIP3     5321     TP3      H2       HW       0.417000       1.00800           0
     27895 TIP3     5322     TP3      O        OW      -0.834000       16.0000           0
     27896 TIP3     5322     TP3      H1       HW       0.417000       1.00800           0
     27897 TIP3     5322     TP3      H2       HW       0.417000       1.00800           0
     27898 TIP3     5323     TP3      O        OW      -0.834000       16.0000           0
     27899 TIP3     5323     TP3      H1       HW       0.417000       1.00800           0
     27900 TIP3     5323     TP3      H2       HW       0.417000       1.00800           0
     27901 TIP3     5324     TP3      O        OW      -0.834000       16.0000           0
     27902 TIP3     5324     TP3      H1       HW       0.417000       1.00800           0
     27903 TIP3     5324     TP3      H2       HW       0.417000       1.00800           0
     27904 TIP3     5325     TP3      O        OW      -0.834000       16.0000           0
     27905 TIP3     5325     TP3      H1       HW       0.417000       1.00800           0
     27906 TIP3     5325     TP3      H2       HW       0.417000       1.00800           0
     27907 TIP3     5326     TP3      O        OW      -0.834000       16.0000           0
     27908 TIP3     5326     TP3      H1       HW       0.417000       1.00800           0
     27909 TIP3     5326     TP3      H2       HW       0.417000       1.00800           0
     27910 TIP3     5327     TP3      O        OW      -0.834000       16.0000           0
     27911 TIP3     5327     TP3      H1       HW       0.417000       1.00800           0
     27912 TIP3     5327     TP3      H2       HW       0.417000       1.00800           0
     27913 TIP3     5328     TP3      O        OW      -0.834000       16.0000           0
     27914 TIP3     5328     TP3      H1       HW       0.417000       1.00800           0
     27915 TIP3     5328     TP3      H2       HW       0.417000       1.00800           0
     27916 TIP3     5329     TP3      O        OW      -0.834000       16.0000           0
     27917 TIP3     5329     TP3      H1       HW       0.417000       1.00800           0
     27918 TIP3     5329     TP3      H2       HW       0.417000       1.00800           0
     27919 TIP3     5330     TP3      O        OW      -0.834000       16.0000           0
     27920 TIP3     5330     TP3      H1       HW       0.417000       1.00800           0
     27921 TIP3     5330     TP3      H2       HW       0.417000       1.00800           0
     27922 TIP3     5331     TP3      O        OW      -0.834000       16.0000           0
     27923 TIP3     5331     TP3      H1       HW       0.417000       1.00800           0
     27924 TIP3     5331     TP3      H2       HW       0.417000       1.00800           0
     27925 TIP3     5332     TP3      O        OW      -0.834000       16.0000           0
     27926 TIP3     5332     TP3      H1       HW       0.417000       1.00800           0
     27927 TIP3     5332     TP3      H2       HW       0.417000       1.00800           0
     27928 TIP3     5333     TP3      O        OW      -0.834000       16.0000           0
     27929 TIP3     5333     TP3      H1       HW       0.417000       1.00800           0
     27930 TIP3     5333     TP3      H2       HW       0.417000       1.00800           0
     27931 TIP3     5334     TP3      O        OW      -0.834000       16.0000           0
     27932 TIP3     5334     TP3      H1       HW       0.417000       1.00800           0
     27933 TIP3     5334     TP3      H2       HW       0.417000       1.00800           0
     27934 TIP3     5335     TP3      O        OW      -0.834000       16.0000           0
     27935 TIP3     5335     TP3      H1       HW       0.417000       1.00800           0
     27936 TIP3     5335     TP3      H2       HW       0.417000       1.00800           0
     27937 TIP3     5336     TP3      O        OW      -0.834000       16.0000           0
     27938 TIP3     5336     TP3      H1       HW       0.417000       1.00800           0
     27939 TIP3     5336     TP3      H2       HW       0.417000       1.00800           0
     27940 TIP3     5337     TP3      O        OW      -0.834000       16.0000           0
     27941 TIP3     5337     TP3      H1       HW       0.417000       1.00800           0
     27942 TIP3     5337     TP3      H2       HW       0.417000       1.00800           0
     27943 TIP3     5338     TP3      O        OW      -0.834000       16.0000           0
     27944 TIP3     5338     TP3      H1       HW       0.417000       1.00800           0
     27945 TIP3     5338     TP3      H2       HW       0.417000       1.00800           0
     27946 TIP3     5339     TP3      O        OW      -0.834000       16.0000           0
     27947 TIP3     5339     TP3      H1       HW       0.417000       1.00800           0
     27948 TIP3     5339     TP3      H2       HW       0.417000       1.00800           0
     27949 TIP3     5340     TP3      O        OW      -0.834000       16.0000           0
     27950 TIP3     5340     TP3      H1       HW       0.417000       1.00800           0
     27951 TIP3     5340     TP3      H2       HW       0.417000       1.00800           0
     27952 TIP3     5341     TP3      O        OW      -0.834000       16.0000           0
     27953 TIP3     5341     TP3      H1       HW       0.417000       1.00800           0
     27954 TIP3     5341     TP3      H2       HW       0.417000       1.00800           0
     27955 TIP3     5342     TP3      O        OW      -0.834000       16.0000           0
     27956 TIP3     5342     TP3      H1       HW       0.417000       1.00800           0
     27957 TIP3     5342     TP3      H2       HW       0.417000       1.00800           0
     27958 TIP3     5343     TP3      O        OW      -0.834000       16.0000           0
     27959 TIP3     5343     TP3      H1       HW       0.417000       1.00800           0
     27960 TIP3     5343     TP3      H2       HW       0.417000       1.00800           0
     27961 TIP3     5344     TP3      O        OW      -0.834000       16.0000           0
     27962 TIP3     5344     TP3      H1       HW       0.417000       1.00800           0
     27963 TIP3     5344     TP3      H2       HW       0.417000       1.00800           0
     27964 TIP3     5345     TP3      O        OW      -0.834000       16.0000           0
     27965 TIP3     5345     TP3      H1       HW       0.417000       1.00800           0
     27966 TIP3     5345     TP3      H2       HW       0.417000       1.00800           0
     27967 TIP3     5346     TP3      O        OW      -0.834000       16.0000           0
     27968 TIP3     5346     TP3      H1       HW       0.417000       1.00800           0
     27969 TIP3     5346     TP3      H2       HW       0.417000       1.00800           0
     27970 TIP3     5347     TP3      O        OW      -0.834000       16.0000           0
     27971 TIP3     5347     TP3      H1       HW       0.417000       1.00800           0
     27972 TIP3     5347     TP3      H2       HW       0.417000       1.00800           0
     27973 TIP3     5348     TP3      O        OW      -0.834000       16.0000           0
     27974 TIP3     5348     TP3      H1       HW       0.417000       1.00800           0
     27975 TIP3     5348     TP3      H2       HW       0.417000       1.00800           0
     27976 TIP3     5349     TP3      O        OW      -0.834000       16.0000           0
     27977 TIP3     5349     TP3      H1       HW       0.417000       1.00800           0
     27978 TIP3     5349     TP3      H2       HW       0.417000       1.00800           0
     27979 TIP3     5350     TP3      O        OW      -0.834000       16.0000           0
     27980 TIP3     5350     TP3      H1       HW       0.417000       1.00800           0
     27981 TIP3     5350     TP3      H2       HW       0.417000       1.00800           0
     27982 TIP3     5351     TP3      O        OW      -0.834000       16.0000           0
     27983 TIP3     5351     TP3      H1       HW       0.417000       1.00800           0
     27984 TIP3     5351     TP3      H2       HW       0.417000       1.00800           0
     27985 TIP3     5352     TP3      O        OW      -0.834000       16.0000           0
     27986 TIP3     5352     TP3      H1       HW       0.417000       1.00800           0
     27987 TIP3     5352     TP3      H2       HW       0.417000       1.00800           0
     27988 TIP3     5353     TP3      O        OW      -0.834000       16.0000           0
     27989 TIP3     5353     TP3      H1       HW       0.417000       1.00800           0
     27990 TIP3     5353     TP3      H2       HW       0.417000       1.00800           0
     27991 TIP3     5354     TP3      O        OW      -0.834000       16.0000           0
     27992 TIP3     5354     TP3      H1       HW       0.417000       1.00800           0
     27993 TIP3     5354     TP3      H2       HW       0.417000       1.00800           0
     27994 TIP3     5355     TP3      O        OW      -0.834000       16.0000           0
     27995 TIP3     5355     TP3      H1       HW       0.417000       1.00800           0
     27996 TIP3     5355     TP3      H2       HW       0.417000       1.00800           0
     27997 TIP3     5356     TP3      O        OW      -0.834000       16.0000           0
     27998 TIP3     5356     TP3      H1       HW       0.417000       1.00800           0
     27999 TIP3     5356     TP3      H2       HW       0.417000       1.00800           0
     28000 TIP3     5357     TP3      O        OW      -0.834000       16.0000           0
     28001 TIP3     5357     TP3      H1       HW       0.417000       1.00800           0
     28002 TIP3     5357     TP3      H2       HW       0.417000       1.00800           0
     28003 TIP3     5358     TP3      O        OW      -0.834000       16.0000           0
     28004 TIP3     5358     TP3      H1       HW       0.417000       1.00800           0
     28005 TIP3     5358     TP3      H2       HW       0.417000       1.00800           0
     28006 TIP3     5359     TP3      O        OW      -0.834000       16.0000           0
     28007 TIP3     5359     TP3      H1       HW       0.417000       1.00800           0
     28008 TIP3     5359     TP3      H2       HW       0.417000       1.00800           0
     28009 TIP3     5360     TP3      O        OW      -0.834000       16.0000           0
     28010 TIP3     5360     TP3      H1       HW       0.417000       1.00800           0
     28011 TIP3     5360     TP3      H2       HW       0.417000       1.00800           0
     28012 TIP3     5361     TP3      O        OW      -0.834000       16.0000           0
     28013 TIP3     5361     TP3      H1       HW       0.417000       1.00800           0
     28014 TIP3     5361     TP3      H2       HW       0.417000       1.00800           0
     28015 TIP3     5362     TP3      O        OW      -0.834000       16.0000           0
     28016 TIP3     5362     TP3      H1       HW       0.417000       1.00800           0
     28017 TIP3     5362     TP3      H2       HW       0.417000       1.00800           0
     28018 TIP3     5363     TP3      O        OW      -0.834000       16.0000           0
     28019 TIP3     5363     TP3      H1       HW       0.417000       1.00800           0
     28020 TIP3     5363     TP3      H2       HW       0.417000       1.00800           0
     28021 TIP3     5364     TP3      O        OW      -0.834000       16.0000           0
     28022 TIP3     5364     TP3      H1       HW       0.417000       1.00800           0
     28023 TIP3     5364     TP3      H2       HW       0.417000       1.00800           0
     28024 TIP3     5365     TP3      O        OW      -0.834000       16.0000           0
     28025 TIP3     5365     TP3      H1       HW       0.417000       1.00800           0
     28026 TIP3     5365     TP3      H2       HW       0.417000       1.00800           0
     28027 TIP3     5366     TP3      O        OW      -0.834000       16.0000           0
     28028 TIP3     5366     TP3      H1       HW       0.417000       1.00800           0
     28029 TIP3     5366     TP3      H2       HW       0.417000       1.00800           0
     28030 TIP3     5367     TP3      O        OW      -0.834000       16.0000           0
     28031 TIP3     5367     TP3      H1       HW       0.417000       1.00800           0
     28032 TIP3     5367     TP3      H2       HW       0.417000       1.00800           0
     28033 TIP3     5368     TP3      O        OW      -0.834000       16.0000           0
     28034 TIP3     5368     TP3      H1       HW       0.417000       1.00800           0
     28035 TIP3     5368     TP3      H2       HW       0.417000       1.00800           0
     28036 TIP3     5369     TP3      O        OW      -0.834000       16.0000           0
     28037 TIP3     5369     TP3      H1       HW       0.417000       1.00800           0
     28038 TIP3     5369     TP3      H2       HW       0.417000       1.00800           0
     28039 TIP3     5370     TP3      O        OW      -0.834000       16.0000           0
     28040 TIP3     5370     TP3      H1       HW       0.417000       1.00800           0
     28041 TIP3     5370     TP3      H2       HW       0.417000       1.00800           0
     28042 TIP3     5371     TP3      O        OW      -0.834000       16.0000           0
     28043 TIP3     5371     TP3      H1       HW       0.417000       1.00800           0
     28044 TIP3     5371     TP3      H2       HW       0.417000       1.00800           0
     28045 TIP3     5372     TP3      O        OW      -0.834000       16.0000           0
     28046 TIP3     5372     TP3      H1       HW       0.417000       1.00800           0
     28047 TIP3     5372     TP3      H2       HW       0.417000       1.00800           0
     28048 TIP3     5373     TP3      O        OW      -0.834000       16.0000           0
     28049 TIP3     5373     TP3      H1       HW       0.417000       1.00800           0
     28050 TIP3     5373     TP3      H2       HW       0.417000       1.00800           0
     28051 TIP3     5374     TP3      O        OW      -0.834000       16.0000           0
     28052 TIP3     5374     TP3      H1       HW       0.417000       1.00800           0
     28053 TIP3     5374     TP3      H2       HW       0.417000       1.00800           0
     28054 TIP3     5375     TP3      O        OW      -0.834000       16.0000           0
     28055 TIP3     5375     TP3      H1       HW       0.417000       1.00800           0
     28056 TIP3     5375     TP3      H2       HW       0.417000       1.00800           0
     28057 TIP3     5376     TP3      O        OW      -0.834000       16.0000           0
     28058 TIP3     5376     TP3      H1       HW       0.417000       1.00800           0
     28059 TIP3     5376     TP3      H2       HW       0.417000       1.00800           0
     28060 TIP3     5377     TP3      O        OW      -0.834000       16.0000           0
     28061 TIP3     5377     TP3      H1       HW       0.417000       1.00800           0
     28062 TIP3     5377     TP3      H2       HW       0.417000       1.00800           0
     28063 TIP3     5378     TP3      O        OW      -0.834000       16.0000           0
     28064 TIP3     5378     TP3      H1       HW       0.417000       1.00800           0
     28065 TIP3     5378     TP3      H2       HW       0.417000       1.00800           0
     28066 TIP3     5379     TP3      O        OW      -0.834000       16.0000           0
     28067 TIP3     5379     TP3      H1       HW       0.417000       1.00800           0
     28068 TIP3     5379     TP3      H2       HW       0.417000       1.00800           0
     28069 TIP3     5380     TP3      O        OW      -0.834000       16.0000           0
     28070 TIP3     5380     TP3      H1       HW       0.417000       1.00800           0
     28071 TIP3     5380     TP3      H2       HW       0.417000       1.00800           0
     28072 TIP3     5381     TP3      O        OW      -0.834000       16.0000           0
     28073 TIP3     5381     TP3      H1       HW       0.417000       1.00800           0
     28074 TIP3     5381     TP3      H2       HW       0.417000       1.00800           0
     28075 TIP3     5382     TP3      O        OW      -0.834000       16.0000           0
     28076 TIP3     5382     TP3      H1       HW       0.417000       1.00800           0
     28077 TIP3     5382     TP3      H2       HW       0.417000       1.00800           0
     28078 TIP3     5383     TP3      O        OW      -0.834000       16.0000           0
     28079 TIP3     5383     TP3      H1       HW       0.417000       1.00800           0
     28080 TIP3     5383     TP3      H2       HW       0.417000       1.00800           0
     28081 TIP3     5384     TP3      O        OW      -0.834000       16.0000           0
     28082 TIP3     5384     TP3      H1       HW       0.417000       1.00800           0
     28083 TIP3     5384     TP3      H2       HW       0.417000       1.00800           0
     28084 TIP3     5385     TP3      O        OW      -0.834000       16.0000           0
     28085 TIP3     5385     TP3      H1       HW       0.417000       1.00800           0
     28086 TIP3     5385     TP3      H2       HW       0.417000       1.00800           0
     28087 TIP3     5386     TP3      O        OW      -0.834000       16.0000           0
     28088 TIP3     5386     TP3      H1       HW       0.417000       1.00800           0
     28089 TIP3     5386     TP3      H2       HW       0.417000       1.00800           0
     28090 TIP3     5387     TP3      O        OW      -0.834000       16.0000           0
     28091 TIP3     5387     TP3      H1       HW       0.417000       1.00800           0
     28092 TIP3     5387     TP3      H2       HW       0.417000       1.00800           0
     28093 TIP3     5388     TP3      O        OW      -0.834000       16.0000           0
     28094 TIP3     5388     TP3      H1       HW       0.417000       1.00800           0
     28095 TIP3     5388     TP3      H2       HW       0.417000       1.00800           0
     28096 TIP3     5389     TP3      O        OW      -0.834000       16.0000           0
     28097 TIP3     5389     TP3      H1       HW       0.417000       1.00800           0
     28098 TIP3     5389     TP3      H2       HW       0.417000       1.00800           0
     28099 TIP3     5390     TP3      O        OW      -0.834000       16.0000           0
     28100 TIP3     5390     TP3      H1       HW       0.417000       1.00800           0
     28101 TIP3     5390     TP3      H2       HW       0.417000       1.00800           0
     28102 TIP3     5391     TP3      O        OW      -0.834000       16.0000           0
     28103 TIP3     5391     TP3      H1       HW       0.417000       1.00800           0
     28104 TIP3     5391     TP3      H2       HW       0.417000       1.00800           0
     28105 TIP3     5392     TP3      O        OW      -0.834000       16.0000           0
     28106 TIP3     5392     TP3      H1       HW       0.417000       1.00800           0
     28107 TIP3     5392     TP3      H2       HW       0.417000       1.00800           0
     28108 TIP3     5393     TP3      O        OW      -0.834000       16.0000           0
     28109 TIP3     5393     TP3      H1       HW       0.417000       1.00800           0
     28110 TIP3     5393     TP3      H2       HW       0.417000       1.00800           0
     28111 TIP3     5394     TP3      O        OW      -0.834000       16.0000           0
     28112 TIP3     5394     TP3      H1       HW       0.417000       1.00800           0
     28113 TIP3     5394     TP3      H2       HW       0.417000       1.00800           0
     28114 TIP3     5395     TP3      O        OW      -0.834000       16.0000           0
     28115 TIP3     5395     TP3      H1       HW       0.417000       1.00800           0
     28116 TIP3     5395     TP3      H2       HW       0.417000       1.00800           0
     28117 TIP3     5396     TP3      O        OW      -0.834000       16.0000           0
     28118 TIP3     5396     TP3      H1       HW       0.417000       1.00800           0
     28119 TIP3     5396     TP3      H2       HW       0.417000       1.00800           0
     28120 TIP3     5397     TP3      O        OW      -0.834000       16.0000           0
     28121 TIP3     5397     TP3      H1       HW       0.417000       1.00800           0
     28122 TIP3     5397     TP3      H2       HW       0.417000       1.00800           0
     28123 TIP3     5398     TP3      O        OW      -0.834000       16.0000           0
     28124 TIP3     5398     TP3      H1       HW       0.417000       1.00800           0
     28125 TIP3     5398     TP3      H2       HW       0.417000       1.00800           0
     28126 TIP3     5399     TP3      O        OW      -0.834000       16.0000           0
     28127 TIP3     5399     TP3      H1       HW       0.417000       1.00800           0
     28128 TIP3     5399     TP3      H2       HW       0.417000       1.00800           0
     28129 TIP3     5400     TP3      O        OW      -0.834000       16.0000           0
     28130 TIP3     5400     TP3      H1       HW       0.417000       1.00800           0
     28131 TIP3     5400     TP3      H2       HW       0.417000       1.00800           0
     28132 TIP3     5401     TP3      O        OW      -0.834000       16.0000           0
     28133 TIP3     5401     TP3      H1       HW       0.417000       1.00800           0
     28134 TIP3     5401     TP3      H2       HW       0.417000       1.00800           0
     28135 TIP3     5402     TP3      O        OW      -0.834000       16.0000           0
     28136 TIP3     5402     TP3      H1       HW       0.417000       1.00800           0
     28137 TIP3     5402     TP3      H2       HW       0.417000       1.00800           0
     28138 TIP3     5403     TP3      O        OW      -0.834000       16.0000           0
     28139 TIP3     5403     TP3      H1       HW       0.417000       1.00800           0
     28140 TIP3     5403     TP3      H2       HW       0.417000       1.00800           0
     28141 TIP3     5404     TP3      O        OW      -0.834000       16.0000           0
     28142 TIP3     5404     TP3      H1       HW       0.417000       1.00800           0
     28143 TIP3     5404     TP3      H2       HW       0.417000       1.00800           0
     28144 TIP3     5405     TP3      O        OW      -0.834000       16.0000           0
     28145 TIP3     5405     TP3      H1       HW       0.417000       1.00800           0
     28146 TIP3     5405     TP3      H2       HW       0.417000       1.00800           0
     28147 TIP3     5406     TP3      O        OW      -0.834000       16.0000           0
     28148 TIP3     5406     TP3      H1       HW       0.417000       1.00800           0
     28149 TIP3     5406     TP3      H2       HW       0.417000       1.00800           0
     28150 TIP3     5407     TP3      O        OW      -0.834000       16.0000           0
     28151 TIP3     5407     TP3      H1       HW       0.417000       1.00800           0
     28152 TIP3     5407     TP3      H2       HW       0.417000       1.00800           0
     28153 TIP3     5408     TP3      O        OW      -0.834000       16.0000           0
     28154 TIP3     5408     TP3      H1       HW       0.417000       1.00800           0
     28155 TIP3     5408     TP3      H2       HW       0.417000       1.00800           0
     28156 TIP3     5409     TP3      O        OW      -0.834000       16.0000           0
     28157 TIP3     5409     TP3      H1       HW       0.417000       1.00800           0
     28158 TIP3     5409     TP3      H2       HW       0.417000       1.00800           0
     28159 TIP3     5410     TP3      O        OW      -0.834000       16.0000           0
     28160 TIP3     5410     TP3      H1       HW       0.417000       1.00800           0
     28161 TIP3     5410     TP3      H2       HW       0.417000       1.00800           0
     28162 TIP3     5411     TP3      O        OW      -0.834000       16.0000           0
     28163 TIP3     5411     TP3      H1       HW       0.417000       1.00800           0
     28164 TIP3     5411     TP3      H2       HW       0.417000       1.00800           0
     28165 TIP3     5412     TP3      O        OW      -0.834000       16.0000           0
     28166 TIP3     5412     TP3      H1       HW       0.417000       1.00800           0
     28167 TIP3     5412     TP3      H2       HW       0.417000       1.00800           0
     28168 TIP3     5413     TP3      O        OW      -0.834000       16.0000           0
     28169 TIP3     5413     TP3      H1       HW       0.417000       1.00800           0
     28170 TIP3     5413     TP3      H2       HW       0.417000       1.00800           0
     28171 TIP3     5414     TP3      O        OW      -0.834000       16.0000           0
     28172 TIP3     5414     TP3      H1       HW       0.417000       1.00800           0
     28173 TIP3     5414     TP3      H2       HW       0.417000       1.00800           0
     28174 TIP3     5415     TP3      O        OW      -0.834000       16.0000           0
     28175 TIP3     5415     TP3      H1       HW       0.417000       1.00800           0
     28176 TIP3     5415     TP3      H2       HW       0.417000       1.00800           0
     28177 TIP3     5416     TP3      O        OW      -0.834000       16.0000           0
     28178 TIP3     5416     TP3      H1       HW       0.417000       1.00800           0
     28179 TIP3     5416     TP3      H2       HW       0.417000       1.00800           0
     28180 TIP3     5417     TP3      O        OW      -0.834000       16.0000           0
     28181 TIP3     5417     TP3      H1       HW       0.417000       1.00800           0
     28182 TIP3     5417     TP3      H2       HW       0.417000       1.00800           0
     28183 TIP3     5418     TP3      O        OW      -0.834000       16.0000           0
     28184 TIP3     5418     TP3      H1       HW       0.417000       1.00800           0
     28185 TIP3     5418     TP3      H2       HW       0.417000       1.00800           0
     28186 TIP3     5419     TP3      O        OW      -0.834000       16.0000           0
     28187 TIP3     5419     TP3      H1       HW       0.417000       1.00800           0
     28188 TIP3     5419     TP3      H2       HW       0.417000       1.00800           0
     28189 TIP3     5420     TP3      O        OW      -0.834000       16.0000           0
     28190 TIP3     5420     TP3      H1       HW       0.417000       1.00800           0
     28191 TIP3     5420     TP3      H2       HW       0.417000       1.00800           0
     28192 TIP3     5421     TP3      O        OW      -0.834000       16.0000           0
     28193 TIP3     5421     TP3      H1       HW       0.417000       1.00800           0
     28194 TIP3     5421     TP3      H2       HW       0.417000       1.00800           0
     28195 TIP3     5422     TP3      O        OW      -0.834000       16.0000           0
     28196 TIP3     5422     TP3      H1       HW       0.417000       1.00800           0
     28197 TIP3     5422     TP3      H2       HW       0.417000       1.00800           0
     28198 TIP3     5423     TP3      O        OW      -0.834000       16.0000           0
     28199 TIP3     5423     TP3      H1       HW       0.417000       1.00800           0
     28200 TIP3     5423     TP3      H2       HW       0.417000       1.00800           0
     28201 TIP3     5424     TP3      O        OW      -0.834000       16.0000           0
     28202 TIP3     5424     TP3      H1       HW       0.417000       1.00800           0
     28203 TIP3     5424     TP3      H2       HW       0.417000       1.00800           0
     28204 TIP3     5425     TP3      O        OW      -0.834000       16.0000           0
     28205 TIP3     5425     TP3      H1       HW       0.417000       1.00800           0
     28206 TIP3     5425     TP3      H2       HW       0.417000       1.00800           0
     28207 TIP3     5426     TP3      O        OW      -0.834000       16.0000           0
     28208 TIP3     5426     TP3      H1       HW       0.417000       1.00800           0
     28209 TIP3     5426     TP3      H2       HW       0.417000       1.00800           0
     28210 TIP3     5427     TP3      O        OW      -0.834000       16.0000           0
     28211 TIP3     5427     TP3      H1       HW       0.417000       1.00800           0
     28212 TIP3     5427     TP3      H2       HW       0.417000       1.00800           0
     28213 TIP3     5428     TP3      O        OW      -0.834000       16.0000           0
     28214 TIP3     5428     TP3      H1       HW       0.417000       1.00800           0
     28215 TIP3     5428     TP3      H2       HW       0.417000       1.00800           0
     28216 TIP3     5429     TP3      O        OW      -0.834000       16.0000           0
     28217 TIP3     5429     TP3      H1       HW       0.417000       1.00800           0
     28218 TIP3     5429     TP3      H2       HW       0.417000       1.00800           0
     28219 TIP3     5430     TP3      O        OW      -0.834000       16.0000           0
     28220 TIP3     5430     TP3      H1       HW       0.417000       1.00800           0
     28221 TIP3     5430     TP3      H2       HW       0.417000       1.00800           0
     28222 TIP3     5431     TP3      O        OW      -0.834000       16.0000           0
     28223 TIP3     5431     TP3      H1       HW       0.417000       1.00800           0
     28224 TIP3     5431     TP3      H2       HW       0.417000       1.00800           0
     28225 TIP3     5432     TP3      O        OW      -0.834000       16.0000           0
     28226 TIP3     5432     TP3      H1       HW       0.417000       1.00800           0
     28227 TIP3     5432     TP3      H2       HW       0.417000       1.00800           0
     28228 TIP3     5433     TP3      O        OW      -0.834000       16.0000           0
     28229 TIP3     5433     TP3      H1       HW       0.417000       1.00800           0
     28230 TIP3     5433     TP3      H2       HW       0.417000       1.00800           0
     28231 TIP3     5434     TP3      O        OW      -0.834000       16.0000           0
     28232 TIP3     5434     TP3      H1       HW       0.417000       1.00800           0
     28233 TIP3     5434     TP3      H2       HW       0.417000       1.00800           0
     28234 TIP3     5435     TP3      O        OW      -0.834000       16.0000           0
     28235 TIP3     5435     TP3      H1       HW       0.417000       1.00800           0
     28236 TIP3     5435     TP3      H2       HW       0.417000       1.00800           0
     28237 TIP3     5436     TP3      O        OW      -0.834000       16.0000           0
     28238 TIP3     5436     TP3      H1       HW       0.417000       1.00800           0
     28239 TIP3     5436     TP3      H2       HW       0.417000       1.00800           0
     28240 TIP3     5437     TP3      O        OW      -0.834000       16.0000           0
     28241 TIP3     5437     TP3      H1       HW       0.417000       1.00800           0
     28242 TIP3     5437     TP3      H2       HW       0.417000       1.00800           0
     28243 TIP3     5438     TP3      O        OW      -0.834000       16.0000           0
     28244 TIP3     5438     TP3      H1       HW       0.417000       1.00800           0
     28245 TIP3     5438     TP3      H2       HW       0.417000       1.00800           0
     28246 TIP3     5439     TP3      O        OW      -0.834000       16.0000           0
     28247 TIP3     5439     TP3      H1       HW       0.417000       1.00800           0
     28248 TIP3     5439     TP3      H2       HW       0.417000       1.00800           0
     28249 TIP3     5440     TP3      O        OW      -0.834000       16.0000           0
     28250 TIP3     5440     TP3      H1       HW       0.417000       1.00800           0
     28251 TIP3     5440     TP3      H2       HW       0.417000       1.00800           0
     28252 TIP3     5441     TP3      O        OW      -0.834000       16.0000           0
     28253 TIP3     5441     TP3      H1       HW       0.417000       1.00800           0
     28254 TIP3     5441     TP3      H2       HW       0.417000       1.00800           0
     28255 TIP3     5442     TP3      O        OW      -0.834000       16.0000           0
     28256 TIP3     5442     TP3      H1       HW       0.417000       1.00800           0
     28257 TIP3     5442     TP3      H2       HW       0.417000       1.00800           0
     28258 TIP3     5443     TP3      O        OW      -0.834000       16.0000           0
     28259 TIP3     5443     TP3      H1       HW       0.417000       1.00800           0
     28260 TIP3     5443     TP3      H2       HW       0.417000       1.00800           0
     28261 TIP3     5444     TP3      O        OW      -0.834000       16.0000           0
     28262 TIP3     5444     TP3      H1       HW       0.417000       1.00800           0
     28263 TIP3     5444     TP3      H2       HW       0.417000       1.00800           0
     28264 TIP3     5445     TP3      O        OW      -0.834000       16.0000           0
     28265 TIP3     5445     TP3      H1       HW       0.417000       1.00800           0
     28266 TIP3     5445     TP3      H2       HW       0.417000       1.00800           0
     28267 TIP3     5446     TP3      O        OW      -0.834000       16.0000           0
     28268 TIP3     5446     TP3      H1       HW       0.417000       1.00800           0
     28269 TIP3     5446     TP3      H2       HW       0.417000       1.00800           0
     28270 TIP3     5447     TP3      O        OW      -0.834000       16.0000           0
     28271 TIP3     5447     TP3      H1       HW       0.417000       1.00800           0
     28272 TIP3     5447     TP3      H2       HW       0.417000       1.00800           0
     28273 TIP3     5448     TP3      O        OW      -0.834000       16.0000           0
     28274 TIP3     5448     TP3      H1       HW       0.417000       1.00800           0
     28275 TIP3     5448     TP3      H2       HW       0.417000       1.00800           0
     28276 TIP3     5449     TP3      O        OW      -0.834000       16.0000           0
     28277 TIP3     5449     TP3      H1       HW       0.417000       1.00800           0
     28278 TIP3     5449     TP3      H2       HW       0.417000       1.00800           0
     28279 TIP3     5450     TP3      O        OW      -0.834000       16.0000           0
     28280 TIP3     5450     TP3      H1       HW       0.417000       1.00800           0
     28281 TIP3     5450     TP3      H2       HW       0.417000       1.00800           0
     28282 TIP3     5451     TP3      O        OW      -0.834000       16.0000           0
     28283 TIP3     5451     TP3      H1       HW       0.417000       1.00800           0
     28284 TIP3     5451     TP3      H2       HW       0.417000       1.00800           0
     28285 TIP3     5452     TP3      O        OW      -0.834000       16.0000           0
     28286 TIP3     5452     TP3      H1       HW       0.417000       1.00800           0
     28287 TIP3     5452     TP3      H2       HW       0.417000       1.00800           0
     28288 TIP3     5453     TP3      O        OW      -0.834000       16.0000           0
     28289 TIP3     5453     TP3      H1       HW       0.417000       1.00800           0
     28290 TIP3     5453     TP3      H2       HW       0.417000       1.00800           0
     28291 TIP3     5454     TP3      O        OW      -0.834000       16.0000           0
     28292 TIP3     5454     TP3      H1       HW       0.417000       1.00800           0
     28293 TIP3     5454     TP3      H2       HW       0.417000       1.00800           0
     28294 TIP3     5455     TP3      O        OW      -0.834000       16.0000           0
     28295 TIP3     5455     TP3      H1       HW       0.417000       1.00800           0
     28296 TIP3     5455     TP3      H2       HW       0.417000       1.00800           0
     28297 TIP3     5456     TP3      O        OW      -0.834000       16.0000           0
     28298 TIP3     5456     TP3      H1       HW       0.417000       1.00800           0
     28299 TIP3     5456     TP3      H2       HW       0.417000       1.00800           0
     28300 TIP3     5457     TP3      O        OW      -0.834000       16.0000           0
     28301 TIP3     5457     TP3      H1       HW       0.417000       1.00800           0
     28302 TIP3     5457     TP3      H2       HW       0.417000       1.00800           0
     28303 TIP3     5458     TP3      O        OW      -0.834000       16.0000           0
     28304 TIP3     5458     TP3      H1       HW       0.417000       1.00800           0
     28305 TIP3     5458     TP3      H2       HW       0.417000       1.00800           0
     28306 TIP3     5459     TP3      O        OW      -0.834000       16.0000           0
     28307 TIP3     5459     TP3      H1       HW       0.417000       1.00800           0
     28308 TIP3     5459     TP3      H2       HW       0.417000       1.00800           0
     28309 TIP3     5460     TP3      O        OW      -0.834000       16.0000           0
     28310 TIP3     5460     TP3      H1       HW       0.417000       1.00800           0
     28311 TIP3     5460     TP3      H2       HW       0.417000       1.00800           0
     28312 TIP3     5461     TP3      O        OW      -0.834000       16.0000           0
     28313 TIP3     5461     TP3      H1       HW       0.417000       1.00800           0
     28314 TIP3     5461     TP3      H2       HW       0.417000       1.00800           0
     28315 TIP3     5462     TP3      O        OW      -0.834000       16.0000           0
     28316 TIP3     5462     TP3      H1       HW       0.417000       1.00800           0
     28317 TIP3     5462     TP3      H2       HW       0.417000       1.00800           0
     28318 TIP3     5463     TP3      O        OW      -0.834000       16.0000           0
     28319 TIP3     5463     TP3      H1       HW       0.417000       1.00800           0
     28320 TIP3     5463     TP3      H2       HW       0.417000       1.00800           0
     28321 TIP3     5464     TP3      O        OW      -0.834000       16.0000           0
     28322 TIP3     5464     TP3      H1       HW       0.417000       1.00800           0
     28323 TIP3     5464     TP3      H2       HW       0.417000       1.00800           0
     28324 TIP3     5465     TP3      O        OW      -0.834000       16.0000           0
     28325 TIP3     5465     TP3      H1       HW       0.417000       1.00800           0
     28326 TIP3     5465     TP3      H2       HW       0.417000       1.00800           0
     28327 TIP3     5466     TP3      O        OW      -0.834000       16.0000           0
     28328 TIP3     5466     TP3      H1       HW       0.417000       1.00800           0
     28329 TIP3     5466     TP3      H2       HW       0.417000       1.00800           0
     28330 TIP3     5467     TP3      O        OW      -0.834000       16.0000           0
     28331 TIP3     5467     TP3      H1       HW       0.417000       1.00800           0
     28332 TIP3     5467     TP3      H2       HW       0.417000       1.00800           0
     28333 TIP3     5468     TP3      O        OW      -0.834000       16.0000           0
     28334 TIP3     5468     TP3      H1       HW       0.417000       1.00800           0
     28335 TIP3     5468     TP3      H2       HW       0.417000       1.00800           0
     28336 TIP3     5469     TP3      O        OW      -0.834000       16.0000           0
     28337 TIP3     5469     TP3      H1       HW       0.417000       1.00800           0
     28338 TIP3     5469     TP3      H2       HW       0.417000       1.00800           0
     28339 TIP3     5470     TP3      O        OW      -0.834000       16.0000           0
     28340 TIP3     5470     TP3      H1       HW       0.417000       1.00800           0
     28341 TIP3     5470     TP3      H2       HW       0.417000       1.00800           0
     28342 TIP3     5471     TP3      O        OW      -0.834000       16.0000           0
     28343 TIP3     5471     TP3      H1       HW       0.417000       1.00800           0
     28344 TIP3     5471     TP3      H2       HW       0.417000       1.00800           0
     28345 TIP3     5472     TP3      O        OW      -0.834000       16.0000           0
     28346 TIP3     5472     TP3      H1       HW       0.417000       1.00800           0
     28347 TIP3     5472     TP3      H2       HW       0.417000       1.00800           0
     28348 TIP3     5473     TP3      O        OW      -0.834000       16.0000           0
     28349 TIP3     5473     TP3      H1       HW       0.417000       1.00800           0
     28350 TIP3     5473     TP3      H2       HW       0.417000       1.00800           0
     28351 TIP3     5474     TP3      O        OW      -0.834000       16.0000           0
     28352 TIP3     5474     TP3      H1       HW       0.417000       1.00800           0
     28353 TIP3     5474     TP3      H2       HW       0.417000       1.00800           0
     28354 TIP3     5475     TP3      O        OW      -0.834000       16.0000           0
     28355 TIP3     5475     TP3      H1       HW       0.417000       1.00800           0
     28356 TIP3     5475     TP3      H2       HW       0.417000       1.00800           0
     28357 TIP3     5476     TP3      O        OW      -0.834000       16.0000           0
     28358 TIP3     5476     TP3      H1       HW       0.417000       1.00800           0
     28359 TIP3     5476     TP3      H2       HW       0.417000       1.00800           0
     28360 TIP3     5477     TP3      O        OW      -0.834000       16.0000           0
     28361 TIP3     5477     TP3      H1       HW       0.417000       1.00800           0
     28362 TIP3     5477     TP3      H2       HW       0.417000       1.00800           0
     28363 TIP3     5478     TP3      O        OW      -0.834000       16.0000           0
     28364 TIP3     5478     TP3      H1       HW       0.417000       1.00800           0
     28365 TIP3     5478     TP3      H2       HW       0.417000       1.00800           0
     28366 TIP3     5479     TP3      O        OW      -0.834000       16.0000           0
     28367 TIP3     5479     TP3      H1       HW       0.417000       1.00800           0
     28368 TIP3     5479     TP3      H2       HW       0.417000       1.00800           0
     28369 TIP3     5480     TP3      O        OW      -0.834000       16.0000           0
     28370 TIP3     5480     TP3      H1       HW       0.417000       1.00800           0
     28371 TIP3     5480     TP3      H2       HW       0.417000       1.00800           0
     28372 TIP3     5481     TP3      O        OW      -0.834000       16.0000           0
     28373 TIP3     5481     TP3      H1       HW       0.417000       1.00800           0
     28374 TIP3     5481     TP3      H2       HW       0.417000       1.00800           0
     28375 TIP3     5482     TP3      O        OW      -0.834000       16.0000           0
     28376 TIP3     5482     TP3      H1       HW       0.417000       1.00800           0
     28377 TIP3     5482     TP3      H2       HW       0.417000       1.00800           0
     28378 TIP3     5483     TP3      O        OW      -0.834000       16.0000           0
     28379 TIP3     5483     TP3      H1       HW       0.417000       1.00800           0
     28380 TIP3     5483     TP3      H2       HW       0.417000       1.00800           0
     28381 TIP3     5484     TP3      O        OW      -0.834000       16.0000           0
     28382 TIP3     5484     TP3      H1       HW       0.417000       1.00800           0
     28383 TIP3     5484     TP3      H2       HW       0.417000       1.00800           0
     28384 TIP3     5485     TP3      O        OW      -0.834000       16.0000           0
     28385 TIP3     5485     TP3      H1       HW       0.417000       1.00800           0
     28386 TIP3     5485     TP3      H2       HW       0.417000       1.00800           0
     28387 TIP3     5486     TP3      O        OW      -0.834000       16.0000           0
     28388 TIP3     5486     TP3      H1       HW       0.417000       1.00800           0
     28389 TIP3     5486     TP3      H2       HW       0.417000       1.00800           0
     28390 TIP3     5487     TP3      O        OW      -0.834000       16.0000           0
     28391 TIP3     5487     TP3      H1       HW       0.417000       1.00800           0
     28392 TIP3     5487     TP3      H2       HW       0.417000       1.00800           0
     28393 TIP3     5488     TP3      O        OW      -0.834000       16.0000           0
     28394 TIP3     5488     TP3      H1       HW       0.417000       1.00800           0
     28395 TIP3     5488     TP3      H2       HW       0.417000       1.00800           0
     28396 TIP3     5489     TP3      O        OW      -0.834000       16.0000           0
     28397 TIP3     5489     TP3      H1       HW       0.417000       1.00800           0
     28398 TIP3     5489     TP3      H2       HW       0.417000       1.00800           0
     28399 TIP3     5490     TP3      O        OW      -0.834000       16.0000           0
     28400 TIP3     5490     TP3      H1       HW       0.417000       1.00800           0
     28401 TIP3     5490     TP3      H2       HW       0.417000       1.00800           0
     28402 TIP3     5491     TP3      O        OW      -0.834000       16.0000           0
     28403 TIP3     5491     TP3      H1       HW       0.417000       1.00800           0
     28404 TIP3     5491     TP3      H2       HW       0.417000       1.00800           0
     28405 TIP3     5492     TP3      O        OW      -0.834000       16.0000           0
     28406 TIP3     5492     TP3      H1       HW       0.417000       1.00800           0
     28407 TIP3     5492     TP3      H2       HW       0.417000       1.00800           0
     28408 TIP3     5493     TP3      O        OW      -0.834000       16.0000           0
     28409 TIP3     5493     TP3      H1       HW       0.417000       1.00800           0
     28410 TIP3     5493     TP3      H2       HW       0.417000       1.00800           0
     28411 TIP3     5494     TP3      O        OW      -0.834000       16.0000           0
     28412 TIP3     5494     TP3      H1       HW       0.417000       1.00800           0
     28413 TIP3     5494     TP3      H2       HW       0.417000       1.00800           0
     28414 TIP3     5495     TP3      O        OW      -0.834000       16.0000           0
     28415 TIP3     5495     TP3      H1       HW       0.417000       1.00800           0
     28416 TIP3     5495     TP3      H2       HW       0.417000       1.00800           0
     28417 TIP3     5496     TP3      O        OW      -0.834000       16.0000           0
     28418 TIP3     5496     TP3      H1       HW       0.417000       1.00800           0
     28419 TIP3     5496     TP3      H2       HW       0.417000       1.00800           0
     28420 TIP3     5497     TP3      O        OW      -0.834000       16.0000           0
     28421 TIP3     5497     TP3      H1       HW       0.417000       1.00800           0
     28422 TIP3     5497     TP3      H2       HW       0.417000       1.00800           0
     28423 TIP3     5498     TP3      O        OW      -0.834000       16.0000           0
     28424 TIP3     5498     TP3      H1       HW       0.417000       1.00800           0
     28425 TIP3     5498     TP3      H2       HW       0.417000       1.00800           0
     28426 TIP3     5499     TP3      O        OW      -0.834000       16.0000           0
     28427 TIP3     5499     TP3      H1       HW       0.417000       1.00800           0
     28428 TIP3     5499     TP3      H2       HW       0.417000       1.00800           0
     28429 TIP3     5500     TP3      O        OW      -0.834000       16.0000           0
     28430 TIP3     5500     TP3      H1       HW       0.417000       1.00800           0
     28431 TIP3     5500     TP3      H2       HW       0.417000       1.00800           0
     28432 TIP3     5501     TP3      O        OW      -0.834000       16.0000           0
     28433 TIP3     5501     TP3      H1       HW       0.417000       1.00800           0
     28434 TIP3     5501     TP3      H2       HW       0.417000       1.00800           0
     28435 TIP3     5502     TP3      O        OW      -0.834000       16.0000           0
     28436 TIP3     5502     TP3      H1       HW       0.417000       1.00800           0
     28437 TIP3     5502     TP3      H2       HW       0.417000       1.00800           0
     28438 TIP3     5503     TP3      O        OW      -0.834000       16.0000           0
     28439 TIP3     5503     TP3      H1       HW       0.417000       1.00800           0
     28440 TIP3     5503     TP3      H2       HW       0.417000       1.00800           0
     28441 TIP3     5504     TP3      O        OW      -0.834000       16.0000           0
     28442 TIP3     5504     TP3      H1       HW       0.417000       1.00800           0
     28443 TIP3     5504     TP3      H2       HW       0.417000       1.00800           0
     28444 TIP3     5505     TP3      O        OW      -0.834000       16.0000           0
     28445 TIP3     5505     TP3      H1       HW       0.417000       1.00800           0
     28446 TIP3     5505     TP3      H2       HW       0.417000       1.00800           0
     28447 TIP3     5506     TP3      O        OW      -0.834000       16.0000           0
     28448 TIP3     5506     TP3      H1       HW       0.417000       1.00800           0
     28449 TIP3     5506     TP3      H2       HW       0.417000       1.00800           0
     28450 TIP3     5507     TP3      O        OW      -0.834000       16.0000           0
     28451 TIP3     5507     TP3      H1       HW       0.417000       1.00800           0
     28452 TIP3     5507     TP3      H2       HW       0.417000       1.00800           0
     28453 TIP3     5508     TP3      O        OW      -0.834000       16.0000           0
     28454 TIP3     5508     TP3      H1       HW       0.417000       1.00800           0
     28455 TIP3     5508     TP3      H2       HW       0.417000       1.00800           0
     28456 TIP3     5509     TP3      O        OW      -0.834000       16.0000           0
     28457 TIP3     5509     TP3      H1       HW       0.417000       1.00800           0
     28458 TIP3     5509     TP3      H2       HW       0.417000       1.00800           0
     28459 TIP3     5510     TP3      O        OW      -0.834000       16.0000           0
     28460 TIP3     5510     TP3      H1       HW       0.417000       1.00800           0
     28461 TIP3     5510     TP3      H2       HW       0.417000       1.00800           0
     28462 TIP3     5511     TP3      O        OW      -0.834000       16.0000           0
     28463 TIP3     5511     TP3      H1       HW       0.417000       1.00800           0
     28464 TIP3     5511     TP3      H2       HW       0.417000       1.00800           0
     28465 TIP3     5512     TP3      O        OW      -0.834000       16.0000           0
     28466 TIP3     5512     TP3      H1       HW       0.417000       1.00800           0
     28467 TIP3     5512     TP3      H2       HW       0.417000       1.00800           0
     28468 TIP3     5513     TP3      O        OW      -0.834000       16.0000           0
     28469 TIP3     5513     TP3      H1       HW       0.417000       1.00800           0
     28470 TIP3     5513     TP3      H2       HW       0.417000       1.00800           0
     28471 TIP3     5514     TP3      O        OW      -0.834000       16.0000           0
     28472 TIP3     5514     TP3      H1       HW       0.417000       1.00800           0
     28473 TIP3     5514     TP3      H2       HW       0.417000       1.00800           0
     28474 TIP3     5515     TP3      O        OW      -0.834000       16.0000           0
     28475 TIP3     5515     TP3      H1       HW       0.417000       1.00800           0
     28476 TIP3     5515     TP3      H2       HW       0.417000       1.00800           0
     28477 TIP3     5516     TP3      O        OW      -0.834000       16.0000           0
     28478 TIP3     5516     TP3      H1       HW       0.417000       1.00800           0
     28479 TIP3     5516     TP3      H2       HW       0.417000       1.00800           0
     28480 TIP3     5517     TP3      O        OW      -0.834000       16.0000           0
     28481 TIP3     5517     TP3      H1       HW       0.417000       1.00800           0
     28482 TIP3     5517     TP3      H2       HW       0.417000       1.00800           0
     28483 TIP3     5518     TP3      O        OW      -0.834000       16.0000           0
     28484 TIP3     5518     TP3      H1       HW       0.417000       1.00800           0
     28485 TIP3     5518     TP3      H2       HW       0.417000       1.00800           0
     28486 TIP3     5519     TP3      O        OW      -0.834000       16.0000           0
     28487 TIP3     5519     TP3      H1       HW       0.417000       1.00800           0
     28488 TIP3     5519     TP3      H2       HW       0.417000       1.00800           0
     28489 TIP3     5520     TP3      O        OW      -0.834000       16.0000           0
     28490 TIP3     5520     TP3      H1       HW       0.417000       1.00800           0
     28491 TIP3     5520     TP3      H2       HW       0.417000       1.00800           0
     28492 TIP3     5521     TP3      O        OW      -0.834000       16.0000           0
     28493 TIP3     5521     TP3      H1       HW       0.417000       1.00800           0
     28494 TIP3     5521     TP3      H2       HW       0.417000       1.00800           0
     28495 TIP3     5522     TP3      O        OW      -0.834000       16.0000           0
     28496 TIP3     5522     TP3      H1       HW       0.417000       1.00800           0
     28497 TIP3     5522     TP3      H2       HW       0.417000       1.00800           0
     28498 TIP3     5523     TP3      O        OW      -0.834000       16.0000           0
     28499 TIP3     5523     TP3      H1       HW       0.417000       1.00800           0
     28500 TIP3     5523     TP3      H2       HW       0.417000       1.00800           0
     28501 TIP3     5524     TP3      O        OW      -0.834000       16.0000           0
     28502 TIP3     5524     TP3      H1       HW       0.417000       1.00800           0
     28503 TIP3     5524     TP3      H2       HW       0.417000       1.00800           0
     28504 TIP3     5525     TP3      O        OW      -0.834000       16.0000           0
     28505 TIP3     5525     TP3      H1       HW       0.417000       1.00800           0
     28506 TIP3     5525     TP3      H2       HW       0.417000       1.00800           0
     28507 TIP3     5526     TP3      O        OW      -0.834000       16.0000           0
     28508 TIP3     5526     TP3      H1       HW       0.417000       1.00800           0
     28509 TIP3     5526     TP3      H2       HW       0.417000       1.00800           0
     28510 TIP3     5527     TP3      O        OW      -0.834000       16.0000           0
     28511 TIP3     5527     TP3      H1       HW       0.417000       1.00800           0
     28512 TIP3     5527     TP3      H2       HW       0.417000       1.00800           0
     28513 TIP3     5528     TP3      O        OW      -0.834000       16.0000           0
     28514 TIP3     5528     TP3      H1       HW       0.417000       1.00800           0
     28515 TIP3     5528     TP3      H2       HW       0.417000       1.00800           0
     28516 TIP3     5529     TP3      O        OW      -0.834000       16.0000           0
     28517 TIP3     5529     TP3      H1       HW       0.417000       1.00800           0
     28518 TIP3     5529     TP3      H2       HW       0.417000       1.00800           0
     28519 TIP3     5530     TP3      O        OW      -0.834000       16.0000           0
     28520 TIP3     5530     TP3      H1       HW       0.417000       1.00800           0
     28521 TIP3     5530     TP3      H2       HW       0.417000       1.00800           0
     28522 TIP3     5531     TP3      O        OW      -0.834000       16.0000           0
     28523 TIP3     5531     TP3      H1       HW       0.417000       1.00800           0
     28524 TIP3     5531     TP3      H2       HW       0.417000       1.00800           0
     28525 TIP3     5532     TP3      O        OW      -0.834000       16.0000           0
     28526 TIP3     5532     TP3      H1       HW       0.417000       1.00800           0
     28527 TIP3     5532     TP3      H2       HW       0.417000       1.00800           0
     28528 TIP3     5533     TP3      O        OW      -0.834000       16.0000           0
     28529 TIP3     5533     TP3      H1       HW       0.417000       1.00800           0
     28530 TIP3     5533     TP3      H2       HW       0.417000       1.00800           0
     28531 TIP3     5534     TP3      O        OW      -0.834000       16.0000           0
     28532 TIP3     5534     TP3      H1       HW       0.417000       1.00800           0
     28533 TIP3     5534     TP3      H2       HW       0.417000       1.00800           0
     28534 TIP3     5535     TP3      O        OW      -0.834000       16.0000           0
     28535 TIP3     5535     TP3      H1       HW       0.417000       1.00800           0
     28536 TIP3     5535     TP3      H2       HW       0.417000       1.00800           0
     28537 TIP3     5536     TP3      O        OW      -0.834000       16.0000           0
     28538 TIP3     5536     TP3      H1       HW       0.417000       1.00800           0
     28539 TIP3     5536     TP3      H2       HW       0.417000       1.00800           0
     28540 TIP3     5537     TP3      O        OW      -0.834000       16.0000           0
     28541 TIP3     5537     TP3      H1       HW       0.417000       1.00800           0
     28542 TIP3     5537     TP3      H2       HW       0.417000       1.00800           0
     28543 TIP3     5538     TP3      O        OW      -0.834000       16.0000           0
     28544 TIP3     5538     TP3      H1       HW       0.417000       1.00800           0
     28545 TIP3     5538     TP3      H2       HW       0.417000       1.00800           0
     28546 TIP3     5539     TP3      O        OW      -0.834000       16.0000           0
     28547 TIP3     5539     TP3      H1       HW       0.417000       1.00800           0
     28548 TIP3     5539     TP3      H2       HW       0.417000       1.00800           0
     28549 TIP3     5540     TP3      O        OW      -0.834000       16.0000           0
     28550 TIP3     5540     TP3      H1       HW       0.417000       1.00800           0
     28551 TIP3     5540     TP3      H2       HW       0.417000       1.00800           0
     28552 TIP3     5541     TP3      O        OW      -0.834000       16.0000           0
     28553 TIP3     5541     TP3      H1       HW       0.417000       1.00800           0
     28554 TIP3     5541     TP3      H2       HW       0.417000       1.00800           0
     28555 TIP3     5542     TP3      O        OW      -0.834000       16.0000           0
     28556 TIP3     5542     TP3      H1       HW       0.417000       1.00800           0
     28557 TIP3     5542     TP3      H2       HW       0.417000       1.00800           0
     28558 TIP3     5543     TP3      O        OW      -0.834000       16.0000           0
     28559 TIP3     5543     TP3      H1       HW       0.417000       1.00800           0
     28560 TIP3     5543     TP3      H2       HW       0.417000       1.00800           0
     28561 TIP3     5544     TP3      O        OW      -0.834000       16.0000           0
     28562 TIP3     5544     TP3      H1       HW       0.417000       1.00800           0
     28563 TIP3     5544     TP3      H2       HW       0.417000       1.00800           0
     28564 TIP3     5545     TP3      O        OW      -0.834000       16.0000           0
     28565 TIP3     5545     TP3      H1       HW       0.417000       1.00800           0
     28566 TIP3     5545     TP3      H2       HW       0.417000       1.00800           0
     28567 TIP3     5546     TP3      O        OW      -0.834000       16.0000           0
     28568 TIP3     5546     TP3      H1       HW       0.417000       1.00800           0
     28569 TIP3     5546     TP3      H2       HW       0.417000       1.00800           0
     28570 TIP3     5547     TP3      O        OW      -0.834000       16.0000           0
     28571 TIP3     5547     TP3      H1       HW       0.417000       1.00800           0
     28572 TIP3     5547     TP3      H2       HW       0.417000       1.00800           0
     28573 TIP3     5548     TP3      O        OW      -0.834000       16.0000           0
     28574 TIP3     5548     TP3      H1       HW       0.417000       1.00800           0
     28575 TIP3     5548     TP3      H2       HW       0.417000       1.00800           0
     28576 TIP3     5549     TP3      O        OW      -0.834000       16.0000           0
     28577 TIP3     5549     TP3      H1       HW       0.417000       1.00800           0
     28578 TIP3     5549     TP3      H2       HW       0.417000       1.00800           0
     28579 TIP3     5550     TP3      O        OW      -0.834000       16.0000           0
     28580 TIP3     5550     TP3      H1       HW       0.417000       1.00800           0
     28581 TIP3     5550     TP3      H2       HW       0.417000       1.00800           0
     28582 TIP3     5551     TP3      O        OW      -0.834000       16.0000           0
     28583 TIP3     5551     TP3      H1       HW       0.417000       1.00800           0
     28584 TIP3     5551     TP3      H2       HW       0.417000       1.00800           0
     28585 TIP3     5552     TP3      O        OW      -0.834000       16.0000           0
     28586 TIP3     5552     TP3      H1       HW       0.417000       1.00800           0
     28587 TIP3     5552     TP3      H2       HW       0.417000       1.00800           0
     28588 TIP3     5553     TP3      O        OW      -0.834000       16.0000           0
     28589 TIP3     5553     TP3      H1       HW       0.417000       1.00800           0
     28590 TIP3     5553     TP3      H2       HW       0.417000       1.00800           0
     28591 TIP3     5554     TP3      O        OW      -0.834000       16.0000           0
     28592 TIP3     5554     TP3      H1       HW       0.417000       1.00800           0
     28593 TIP3     5554     TP3      H2       HW       0.417000       1.00800           0
     28594 TIP3     5555     TP3      O        OW      -0.834000       16.0000           0
     28595 TIP3     5555     TP3      H1       HW       0.417000       1.00800           0
     28596 TIP3     5555     TP3      H2       HW       0.417000       1.00800           0
     28597 TIP3     5556     TP3      O        OW      -0.834000       16.0000           0
     28598 TIP3     5556     TP3      H1       HW       0.417000       1.00800           0
     28599 TIP3     5556     TP3      H2       HW       0.417000       1.00800           0
     28600 TIP3     5557     TP3      O        OW      -0.834000       16.0000           0
     28601 TIP3     5557     TP3      H1       HW       0.417000       1.00800           0
     28602 TIP3     5557     TP3      H2       HW       0.417000       1.00800           0
     28603 TIP3     5558     TP3      O        OW      -0.834000       16.0000           0
     28604 TIP3     5558     TP3      H1       HW       0.417000       1.00800           0
     28605 TIP3     5558     TP3      H2       HW       0.417000       1.00800           0
     28606 TIP3     5559     TP3      O        OW      -0.834000       16.0000           0
     28607 TIP3     5559     TP3      H1       HW       0.417000       1.00800           0
     28608 TIP3     5559     TP3      H2       HW       0.417000       1.00800           0
     28609 TIP3     5560     TP3      O        OW      -0.834000       16.0000           0
     28610 TIP3     5560     TP3      H1       HW       0.417000       1.00800           0
     28611 TIP3     5560     TP3      H2       HW       0.417000       1.00800           0
     28612 TIP3     5561     TP3      O        OW      -0.834000       16.0000           0
     28613 TIP3     5561     TP3      H1       HW       0.417000       1.00800           0
     28614 TIP3     5561     TP3      H2       HW       0.417000       1.00800           0
     28615 TIP3     5562     TP3      O        OW      -0.834000       16.0000           0
     28616 TIP3     5562     TP3      H1       HW       0.417000       1.00800           0
     28617 TIP3     5562     TP3      H2       HW       0.417000       1.00800           0
     28618 TIP3     5563     TP3      O        OW      -0.834000       16.0000           0
     28619 TIP3     5563     TP3      H1       HW       0.417000       1.00800           0
     28620 TIP3     5563     TP3      H2       HW       0.417000       1.00800           0
     28621 TIP3     5564     TP3      O        OW      -0.834000       16.0000           0
     28622 TIP3     5564     TP3      H1       HW       0.417000       1.00800           0
     28623 TIP3     5564     TP3      H2       HW       0.417000       1.00800           0
     28624 TIP3     5565     TP3      O        OW      -0.834000       16.0000           0
     28625 TIP3     5565     TP3      H1       HW       0.417000       1.00800           0
     28626 TIP3     5565     TP3      H2       HW       0.417000       1.00800           0
     28627 TIP3     5566     TP3      O        OW      -0.834000       16.0000           0
     28628 TIP3     5566     TP3      H1       HW       0.417000       1.00800           0
     28629 TIP3     5566     TP3      H2       HW       0.417000       1.00800           0
     28630 TIP3     5567     TP3      O        OW      -0.834000       16.0000           0
     28631 TIP3     5567     TP3      H1       HW       0.417000       1.00800           0
     28632 TIP3     5567     TP3      H2       HW       0.417000       1.00800           0
     28633 TIP3     5568     TP3      O        OW      -0.834000       16.0000           0
     28634 TIP3     5568     TP3      H1       HW       0.417000       1.00800           0
     28635 TIP3     5568     TP3      H2       HW       0.417000       1.00800           0
     28636 TIP3     5569     TP3      O        OW      -0.834000       16.0000           0
     28637 TIP3     5569     TP3      H1       HW       0.417000       1.00800           0
     28638 TIP3     5569     TP3      H2       HW       0.417000       1.00800           0
     28639 TIP3     5570     TP3      O        OW      -0.834000       16.0000           0
     28640 TIP3     5570     TP3      H1       HW       0.417000       1.00800           0
     28641 TIP3     5570     TP3      H2       HW       0.417000       1.00800           0
     28642 TIP3     5571     TP3      O        OW      -0.834000       16.0000           0
     28643 TIP3     5571     TP3      H1       HW       0.417000       1.00800           0
     28644 TIP3     5571     TP3      H2       HW       0.417000       1.00800           0
     28645 TIP3     5572     TP3      O        OW      -0.834000       16.0000           0
     28646 TIP3     5572     TP3      H1       HW       0.417000       1.00800           0
     28647 TIP3     5572     TP3      H2       HW       0.417000       1.00800           0
     28648 TIP3     5573     TP3      O        OW      -0.834000       16.0000           0
     28649 TIP3     5573     TP3      H1       HW       0.417000       1.00800           0
     28650 TIP3     5573     TP3      H2       HW       0.417000       1.00800           0
     28651 TIP3     5574     TP3      O        OW      -0.834000       16.0000           0
     28652 TIP3     5574     TP3      H1       HW       0.417000       1.00800           0
     28653 TIP3     5574     TP3      H2       HW       0.417000       1.00800           0
     28654 TIP3     5575     TP3      O        OW      -0.834000       16.0000           0
     28655 TIP3     5575     TP3      H1       HW       0.417000       1.00800           0
     28656 TIP3     5575     TP3      H2       HW       0.417000       1.00800           0
     28657 TIP3     5576     TP3      O        OW      -0.834000       16.0000           0
     28658 TIP3     5576     TP3      H1       HW       0.417000       1.00800           0
     28659 TIP3     5576     TP3      H2       HW       0.417000       1.00800           0
     28660 TIP3     5577     TP3      O        OW      -0.834000       16.0000           0
     28661 TIP3     5577     TP3      H1       HW       0.417000       1.00800           0
     28662 TIP3     5577     TP3      H2       HW       0.417000       1.00800           0
     28663 TIP3     5578     TP3      O        OW      -0.834000       16.0000           0
     28664 TIP3     5578     TP3      H1       HW       0.417000       1.00800           0
     28665 TIP3     5578     TP3      H2       HW       0.417000       1.00800           0
     28666 TIP3     5579     TP3      O        OW      -0.834000       16.0000           0
     28667 TIP3     5579     TP3      H1       HW       0.417000       1.00800           0
     28668 TIP3     5579     TP3      H2       HW       0.417000       1.00800           0
     28669 TIP3     5580     TP3      O        OW      -0.834000       16.0000           0
     28670 TIP3     5580     TP3      H1       HW       0.417000       1.00800           0
     28671 TIP3     5580     TP3      H2       HW       0.417000       1.00800           0
     28672 TIP3     5581     TP3      O        OW      -0.834000       16.0000           0
     28673 TIP3     5581     TP3      H1       HW       0.417000       1.00800           0
     28674 TIP3     5581     TP3      H2       HW       0.417000       1.00800           0
     28675 TIP3     5582     TP3      O        OW      -0.834000       16.0000           0
     28676 TIP3     5582     TP3      H1       HW       0.417000       1.00800           0
     28677 TIP3     5582     TP3      H2       HW       0.417000       1.00800           0
     28678 TIP3     5583     TP3      O        OW      -0.834000       16.0000           0
     28679 TIP3     5583     TP3      H1       HW       0.417000       1.00800           0
     28680 TIP3     5583     TP3      H2       HW       0.417000       1.00800           0
     28681 TIP3     5584     TP3      O        OW      -0.834000       16.0000           0
     28682 TIP3     5584     TP3      H1       HW       0.417000       1.00800           0
     28683 TIP3     5584     TP3      H2       HW       0.417000       1.00800           0
     28684 TIP3     5585     TP3      O        OW      -0.834000       16.0000           0
     28685 TIP3     5585     TP3      H1       HW       0.417000       1.00800           0
     28686 TIP3     5585     TP3      H2       HW       0.417000       1.00800           0
     28687 TIP3     5586     TP3      O        OW      -0.834000       16.0000           0
     28688 TIP3     5586     TP3      H1       HW       0.417000       1.00800           0
     28689 TIP3     5586     TP3      H2       HW       0.417000       1.00800           0
     28690 TIP3     5587     TP3      O        OW      -0.834000       16.0000           0
     28691 TIP3     5587     TP3      H1       HW       0.417000       1.00800           0
     28692 TIP3     5587     TP3      H2       HW       0.417000       1.00800           0
     28693 TIP3     5588     TP3      O        OW      -0.834000       16.0000           0
     28694 TIP3     5588     TP3      H1       HW       0.417000       1.00800           0
     28695 TIP3     5588     TP3      H2       HW       0.417000       1.00800           0
     28696 TIP3     5589     TP3      O        OW      -0.834000       16.0000           0
     28697 TIP3     5589     TP3      H1       HW       0.417000       1.00800           0
     28698 TIP3     5589     TP3      H2       HW       0.417000       1.00800           0
     28699 TIP3     5590     TP3      O        OW      -0.834000       16.0000           0
     28700 TIP3     5590     TP3      H1       HW       0.417000       1.00800           0
     28701 TIP3     5590     TP3      H2       HW       0.417000       1.00800           0
     28702 TIP3     5591     TP3      O        OW      -0.834000       16.0000           0
     28703 TIP3     5591     TP3      H1       HW       0.417000       1.00800           0
     28704 TIP3     5591     TP3      H2       HW       0.417000       1.00800           0
     28705 TIP3     5592     TP3      O        OW      -0.834000       16.0000           0
     28706 TIP3     5592     TP3      H1       HW       0.417000       1.00800           0
     28707 TIP3     5592     TP3      H2       HW       0.417000       1.00800           0
     28708 TIP3     5593     TP3      O        OW      -0.834000       16.0000           0
     28709 TIP3     5593     TP3      H1       HW       0.417000       1.00800           0
     28710 TIP3     5593     TP3      H2       HW       0.417000       1.00800           0
     28711 TIP3     5594     TP3      O        OW      -0.834000       16.0000           0
     28712 TIP3     5594     TP3      H1       HW       0.417000       1.00800           0
     28713 TIP3     5594     TP3      H2       HW       0.417000       1.00800           0
     28714 TIP3     5595     TP3      O        OW      -0.834000       16.0000           0
     28715 TIP3     5595     TP3      H1       HW       0.417000       1.00800           0
     28716 TIP3     5595     TP3      H2       HW       0.417000       1.00800           0
     28717 TIP3     5596     TP3      O        OW      -0.834000       16.0000           0
     28718 TIP3     5596     TP3      H1       HW       0.417000       1.00800           0
     28719 TIP3     5596     TP3      H2       HW       0.417000       1.00800           0
     28720 TIP3     5597     TP3      O        OW      -0.834000       16.0000           0
     28721 TIP3     5597     TP3      H1       HW       0.417000       1.00800           0
     28722 TIP3     5597     TP3      H2       HW       0.417000       1.00800           0
     28723 TIP3     5598     TP3      O        OW      -0.834000       16.0000           0
     28724 TIP3     5598     TP3      H1       HW       0.417000       1.00800           0
     28725 TIP3     5598     TP3      H2       HW       0.417000       1.00800           0
     28726 TIP3     5599     TP3      O        OW      -0.834000       16.0000           0
     28727 TIP3     5599     TP3      H1       HW       0.417000       1.00800           0
     28728 TIP3     5599     TP3      H2       HW       0.417000       1.00800           0
     28729 TIP3     5600     TP3      O        OW      -0.834000       16.0000           0
     28730 TIP3     5600     TP3      H1       HW       0.417000       1.00800           0
     28731 TIP3     5600     TP3      H2       HW       0.417000       1.00800           0
     28732 TIP3     5601     TP3      O        OW      -0.834000       16.0000           0
     28733 TIP3     5601     TP3      H1       HW       0.417000       1.00800           0
     28734 TIP3     5601     TP3      H2       HW       0.417000       1.00800           0
     28735 TIP3     5602     TP3      O        OW      -0.834000       16.0000           0
     28736 TIP3     5602     TP3      H1       HW       0.417000       1.00800           0
     28737 TIP3     5602     TP3      H2       HW       0.417000       1.00800           0
     28738 TIP3     5603     TP3      O        OW      -0.834000       16.0000           0
     28739 TIP3     5603     TP3      H1       HW       0.417000       1.00800           0
     28740 TIP3     5603     TP3      H2       HW       0.417000       1.00800           0
     28741 TIP3     5604     TP3      O        OW      -0.834000       16.0000           0
     28742 TIP3     5604     TP3      H1       HW       0.417000       1.00800           0
     28743 TIP3     5604     TP3      H2       HW       0.417000       1.00800           0
     28744 TIP3     5605     TP3      O        OW      -0.834000       16.0000           0
     28745 TIP3     5605     TP3      H1       HW       0.417000       1.00800           0
     28746 TIP3     5605     TP3      H2       HW       0.417000       1.00800           0
     28747 TIP3     5606     TP3      O        OW      -0.834000       16.0000           0
     28748 TIP3     5606     TP3      H1       HW       0.417000       1.00800           0
     28749 TIP3     5606     TP3      H2       HW       0.417000       1.00800           0
     28750 TIP3     5607     TP3      O        OW      -0.834000       16.0000           0
     28751 TIP3     5607     TP3      H1       HW       0.417000       1.00800           0
     28752 TIP3     5607     TP3      H2       HW       0.417000       1.00800           0
     28753 TIP3     5608     TP3      O        OW      -0.834000       16.0000           0
     28754 TIP3     5608     TP3      H1       HW       0.417000       1.00800           0
     28755 TIP3     5608     TP3      H2       HW       0.417000       1.00800           0
     28756 TIP3     5609     TP3      O        OW      -0.834000       16.0000           0
     28757 TIP3     5609     TP3      H1       HW       0.417000       1.00800           0
     28758 TIP3     5609     TP3      H2       HW       0.417000       1.00800           0
     28759 TIP3     5610     TP3      O        OW      -0.834000       16.0000           0
     28760 TIP3     5610     TP3      H1       HW       0.417000       1.00800           0
     28761 TIP3     5610     TP3      H2       HW       0.417000       1.00800           0
     28762 TIP3     5611     TP3      O        OW      -0.834000       16.0000           0
     28763 TIP3     5611     TP3      H1       HW       0.417000       1.00800           0
     28764 TIP3     5611     TP3      H2       HW       0.417000       1.00800           0
     28765 TIP3     5612     TP3      O        OW      -0.834000       16.0000           0
     28766 TIP3     5612     TP3      H1       HW       0.417000       1.00800           0
     28767 TIP3     5612     TP3      H2       HW       0.417000       1.00800           0
     28768 TIP3     5613     TP3      O        OW      -0.834000       16.0000           0
     28769 TIP3     5613     TP3      H1       HW       0.417000       1.00800           0
     28770 TIP3     5613     TP3      H2       HW       0.417000       1.00800           0
     28771 TIP3     5614     TP3      O        OW      -0.834000       16.0000           0
     28772 TIP3     5614     TP3      H1       HW       0.417000       1.00800           0
     28773 TIP3     5614     TP3      H2       HW       0.417000       1.00800           0
     28774 TIP3     5615     TP3      O        OW      -0.834000       16.0000           0
     28775 TIP3     5615     TP3      H1       HW       0.417000       1.00800           0
     28776 TIP3     5615     TP3      H2       HW       0.417000       1.00800           0
     28777 TIP3     5616     TP3      O        OW      -0.834000       16.0000           0
     28778 TIP3     5616     TP3      H1       HW       0.417000       1.00800           0
     28779 TIP3     5616     TP3      H2       HW       0.417000       1.00800           0
     28780 TIP3     5617     TP3      O        OW      -0.834000       16.0000           0
     28781 TIP3     5617     TP3      H1       HW       0.417000       1.00800           0
     28782 TIP3     5617     TP3      H2       HW       0.417000       1.00800           0
     28783 TIP3     5618     TP3      O        OW      -0.834000       16.0000           0
     28784 TIP3     5618     TP3      H1       HW       0.417000       1.00800           0
     28785 TIP3     5618     TP3      H2       HW       0.417000       1.00800           0
     28786 TIP3     5619     TP3      O        OW      -0.834000       16.0000           0
     28787 TIP3     5619     TP3      H1       HW       0.417000       1.00800           0
     28788 TIP3     5619     TP3      H2       HW       0.417000       1.00800           0
     28789 TIP3     5620     TP3      O        OW      -0.834000       16.0000           0
     28790 TIP3     5620     TP3      H1       HW       0.417000       1.00800           0
     28791 TIP3     5620     TP3      H2       HW       0.417000       1.00800           0
     28792 TIP3     5621     TP3      O        OW      -0.834000       16.0000           0
     28793 TIP3     5621     TP3      H1       HW       0.417000       1.00800           0
     28794 TIP3     5621     TP3      H2       HW       0.417000       1.00800           0
     28795 TIP3     5622     TP3      O        OW      -0.834000       16.0000           0
     28796 TIP3     5622     TP3      H1       HW       0.417000       1.00800           0
     28797 TIP3     5622     TP3      H2       HW       0.417000       1.00800           0
     28798 TIP3     5623     TP3      O        OW      -0.834000       16.0000           0
     28799 TIP3     5623     TP3      H1       HW       0.417000       1.00800           0
     28800 TIP3     5623     TP3      H2       HW       0.417000       1.00800           0
     28801 TIP3     5624     TP3      O        OW      -0.834000       16.0000           0
     28802 TIP3     5624     TP3      H1       HW       0.417000       1.00800           0
     28803 TIP3     5624     TP3      H2       HW       0.417000       1.00800           0
     28804 TIP3     5625     TP3      O        OW      -0.834000       16.0000           0
     28805 TIP3     5625     TP3      H1       HW       0.417000       1.00800           0
     28806 TIP3     5625     TP3      H2       HW       0.417000       1.00800           0
     28807 TIP3     5626     TP3      O        OW      -0.834000       16.0000           0
     28808 TIP3     5626     TP3      H1       HW       0.417000       1.00800           0
     28809 TIP3     5626     TP3      H2       HW       0.417000       1.00800           0
     28810 TIP3     5627     TP3      O        OW      -0.834000       16.0000           0
     28811 TIP3     5627     TP3      H1       HW       0.417000       1.00800           0
     28812 TIP3     5627     TP3      H2       HW       0.417000       1.00800           0
     28813 TIP3     5628     TP3      O        OW      -0.834000       16.0000           0
     28814 TIP3     5628     TP3      H1       HW       0.417000       1.00800           0
     28815 TIP3     5628     TP3      H2       HW       0.417000       1.00800           0
     28816 TIP3     5629     TP3      O        OW      -0.834000       16.0000           0
     28817 TIP3     5629     TP3      H1       HW       0.417000       1.00800           0
     28818 TIP3     5629     TP3      H2       HW       0.417000       1.00800           0
     28819 TIP3     5630     TP3      O        OW      -0.834000       16.0000           0
     28820 TIP3     5630     TP3      H1       HW       0.417000       1.00800           0
     28821 TIP3     5630     TP3      H2       HW       0.417000       1.00800           0
     28822 TIP3     5631     TP3      O        OW      -0.834000       16.0000           0
     28823 TIP3     5631     TP3      H1       HW       0.417000       1.00800           0
     28824 TIP3     5631     TP3      H2       HW       0.417000       1.00800           0
     28825 TIP3     5632     TP3      O        OW      -0.834000       16.0000           0
     28826 TIP3     5632     TP3      H1       HW       0.417000       1.00800           0
     28827 TIP3     5632     TP3      H2       HW       0.417000       1.00800           0
     28828 TIP3     5633     TP3      O        OW      -0.834000       16.0000           0
     28829 TIP3     5633     TP3      H1       HW       0.417000       1.00800           0
     28830 TIP3     5633     TP3      H2       HW       0.417000       1.00800           0
     28831 TIP3     5634     TP3      O        OW      -0.834000       16.0000           0
     28832 TIP3     5634     TP3      H1       HW       0.417000       1.00800           0
     28833 TIP3     5634     TP3      H2       HW       0.417000       1.00800           0
     28834 TIP3     5635     TP3      O        OW      -0.834000       16.0000           0
     28835 TIP3     5635     TP3      H1       HW       0.417000       1.00800           0
     28836 TIP3     5635     TP3      H2       HW       0.417000       1.00800           0
     28837 TIP3     5636     TP3      O        OW      -0.834000       16.0000           0
     28838 TIP3     5636     TP3      H1       HW       0.417000       1.00800           0
     28839 TIP3     5636     TP3      H2       HW       0.417000       1.00800           0
     28840 TIP3     5637     TP3      O        OW      -0.834000       16.0000           0
     28841 TIP3     5637     TP3      H1       HW       0.417000       1.00800           0
     28842 TIP3     5637     TP3      H2       HW       0.417000       1.00800           0
     28843 TIP3     5638     TP3      O        OW      -0.834000       16.0000           0
     28844 TIP3     5638     TP3      H1       HW       0.417000       1.00800           0
     28845 TIP3     5638     TP3      H2       HW       0.417000       1.00800           0
     28846 TIP3     5639     TP3      O        OW      -0.834000       16.0000           0
     28847 TIP3     5639     TP3      H1       HW       0.417000       1.00800           0
     28848 TIP3     5639     TP3      H2       HW       0.417000       1.00800           0
     28849 TIP3     5640     TP3      O        OW      -0.834000       16.0000           0
     28850 TIP3     5640     TP3      H1       HW       0.417000       1.00800           0
     28851 TIP3     5640     TP3      H2       HW       0.417000       1.00800           0
     28852 TIP3     5641     TP3      O        OW      -0.834000       16.0000           0
     28853 TIP3     5641     TP3      H1       HW       0.417000       1.00800           0
     28854 TIP3     5641     TP3      H2       HW       0.417000       1.00800           0
     28855 TIP3     5642     TP3      O        OW      -0.834000       16.0000           0
     28856 TIP3     5642     TP3      H1       HW       0.417000       1.00800           0
     28857 TIP3     5642     TP3      H2       HW       0.417000       1.00800           0
     28858 TIP3     5643     TP3      O        OW      -0.834000       16.0000           0
     28859 TIP3     5643     TP3      H1       HW       0.417000       1.00800           0
     28860 TIP3     5643     TP3      H2       HW       0.417000       1.00800           0
     28861 TIP3     5644     TP3      O        OW      -0.834000       16.0000           0
     28862 TIP3     5644     TP3      H1       HW       0.417000       1.00800           0
     28863 TIP3     5644     TP3      H2       HW       0.417000       1.00800           0
     28864 TIP3     5645     TP3      O        OW      -0.834000       16.0000           0
     28865 TIP3     5645     TP3      H1       HW       0.417000       1.00800           0
     28866 TIP3     5645     TP3      H2       HW       0.417000       1.00800           0
     28867 TIP3     5646     TP3      O        OW      -0.834000       16.0000           0
     28868 TIP3     5646     TP3      H1       HW       0.417000       1.00800           0
     28869 TIP3     5646     TP3      H2       HW       0.417000       1.00800           0
     28870 TIP3     5647     TP3      O        OW      -0.834000       16.0000           0
     28871 TIP3     5647     TP3      H1       HW       0.417000       1.00800           0
     28872 TIP3     5647     TP3      H2       HW       0.417000       1.00800           0
     28873 TIP3     5648     TP3      O        OW      -0.834000       16.0000           0
     28874 TIP3     5648     TP3      H1       HW       0.417000       1.00800           0
     28875 TIP3     5648     TP3      H2       HW       0.417000       1.00800           0
     28876 TIP3     5649     TP3      O        OW      -0.834000       16.0000           0
     28877 TIP3     5649     TP3      H1       HW       0.417000       1.00800           0
     28878 TIP3     5649     TP3      H2       HW       0.417000       1.00800           0
     28879 TIP3     5650     TP3      O        OW      -0.834000       16.0000           0
     28880 TIP3     5650     TP3      H1       HW       0.417000       1.00800           0
     28881 TIP3     5650     TP3      H2       HW       0.417000       1.00800           0
     28882 TIP3     5651     TP3      O        OW      -0.834000       16.0000           0
     28883 TIP3     5651     TP3      H1       HW       0.417000       1.00800           0
     28884 TIP3     5651     TP3      H2       HW       0.417000       1.00800           0
     28885 TIP3     5652     TP3      O        OW      -0.834000       16.0000           0
     28886 TIP3     5652     TP3      H1       HW       0.417000       1.00800           0
     28887 TIP3     5652     TP3      H2       HW       0.417000       1.00800           0
     28888 TIP3     5653     TP3      O        OW      -0.834000       16.0000           0
     28889 TIP3     5653     TP3      H1       HW       0.417000       1.00800           0
     28890 TIP3     5653     TP3      H2       HW       0.417000       1.00800           0
     28891 TIP3     5654     TP3      O        OW      -0.834000       16.0000           0
     28892 TIP3     5654     TP3      H1       HW       0.417000       1.00800           0
     28893 TIP3     5654     TP3      H2       HW       0.417000       1.00800           0
     28894 TIP3     5655     TP3      O        OW      -0.834000       16.0000           0
     28895 TIP3     5655     TP3      H1       HW       0.417000       1.00800           0
     28896 TIP3     5655     TP3      H2       HW       0.417000       1.00800           0
     28897 TIP3     5656     TP3      O        OW      -0.834000       16.0000           0
     28898 TIP3     5656     TP3      H1       HW       0.417000       1.00800           0
     28899 TIP3     5656     TP3      H2       HW       0.417000       1.00800           0
     28900 TIP3     5657     TP3      O        OW      -0.834000       16.0000           0
     28901 TIP3     5657     TP3      H1       HW       0.417000       1.00800           0
     28902 TIP3     5657     TP3      H2       HW       0.417000       1.00800           0
     28903 TIP3     5658     TP3      O        OW      -0.834000       16.0000           0
     28904 TIP3     5658     TP3      H1       HW       0.417000       1.00800           0
     28905 TIP3     5658     TP3      H2       HW       0.417000       1.00800           0
     28906 TIP3     5659     TP3      O        OW      -0.834000       16.0000           0
     28907 TIP3     5659     TP3      H1       HW       0.417000       1.00800           0
     28908 TIP3     5659     TP3      H2       HW       0.417000       1.00800           0
     28909 TIP3     5660     TP3      O        OW      -0.834000       16.0000           0
     28910 TIP3     5660     TP3      H1       HW       0.417000       1.00800           0
     28911 TIP3     5660     TP3      H2       HW       0.417000       1.00800           0
     28912 TIP3     5661     TP3      O        OW      -0.834000       16.0000           0
     28913 TIP3     5661     TP3      H1       HW       0.417000       1.00800           0
     28914 TIP3     5661     TP3      H2       HW       0.417000       1.00800           0
     28915 TIP3     5662     TP3      O        OW      -0.834000       16.0000           0
     28916 TIP3     5662     TP3      H1       HW       0.417000       1.00800           0
     28917 TIP3     5662     TP3      H2       HW       0.417000       1.00800           0
     28918 TIP3     5663     TP3      O        OW      -0.834000       16.0000           0
     28919 TIP3     5663     TP3      H1       HW       0.417000       1.00800           0
     28920 TIP3     5663     TP3      H2       HW       0.417000       1.00800           0
     28921 TIP3     5664     TP3      O        OW      -0.834000       16.0000           0
     28922 TIP3     5664     TP3      H1       HW       0.417000       1.00800           0
     28923 TIP3     5664     TP3      H2       HW       0.417000       1.00800           0
     28924 TIP3     5665     TP3      O        OW      -0.834000       16.0000           0
     28925 TIP3     5665     TP3      H1       HW       0.417000       1.00800           0
     28926 TIP3     5665     TP3      H2       HW       0.417000       1.00800           0
     28927 TIP3     5666     TP3      O        OW      -0.834000       16.0000           0
     28928 TIP3     5666     TP3      H1       HW       0.417000       1.00800           0
     28929 TIP3     5666     TP3      H2       HW       0.417000       1.00800           0
     28930 TIP3     5667     TP3      O        OW      -0.834000       16.0000           0
     28931 TIP3     5667     TP3      H1       HW       0.417000       1.00800           0
     28932 TIP3     5667     TP3      H2       HW       0.417000       1.00800           0
     28933 TIP3     5668     TP3      O        OW      -0.834000       16.0000           0
     28934 TIP3     5668     TP3      H1       HW       0.417000       1.00800           0
     28935 TIP3     5668     TP3      H2       HW       0.417000       1.00800           0
     28936 TIP3     5669     TP3      O        OW      -0.834000       16.0000           0
     28937 TIP3     5669     TP3      H1       HW       0.417000       1.00800           0
     28938 TIP3     5669     TP3      H2       HW       0.417000       1.00800           0
     28939 TIP3     5670     TP3      O        OW      -0.834000       16.0000           0
     28940 TIP3     5670     TP3      H1       HW       0.417000       1.00800           0
     28941 TIP3     5670     TP3      H2       HW       0.417000       1.00800           0
     28942 TIP3     5671     TP3      O        OW      -0.834000       16.0000           0
     28943 TIP3     5671     TP3      H1       HW       0.417000       1.00800           0
     28944 TIP3     5671     TP3      H2       HW       0.417000       1.00800           0
     28945 TIP3     5672     TP3      O        OW      -0.834000       16.0000           0
     28946 TIP3     5672     TP3      H1       HW       0.417000       1.00800           0
     28947 TIP3     5672     TP3      H2       HW       0.417000       1.00800           0
     28948 TIP3     5673     TP3      O        OW      -0.834000       16.0000           0
     28949 TIP3     5673     TP3      H1       HW       0.417000       1.00800           0
     28950 TIP3     5673     TP3      H2       HW       0.417000       1.00800           0
     28951 TIP3     5674     TP3      O        OW      -0.834000       16.0000           0
     28952 TIP3     5674     TP3      H1       HW       0.417000       1.00800           0
     28953 TIP3     5674     TP3      H2       HW       0.417000       1.00800           0
     28954 TIP3     5675     TP3      O        OW      -0.834000       16.0000           0
     28955 TIP3     5675     TP3      H1       HW       0.417000       1.00800           0
     28956 TIP3     5675     TP3      H2       HW       0.417000       1.00800           0
     28957 TIP3     5676     TP3      O        OW      -0.834000       16.0000           0
     28958 TIP3     5676     TP3      H1       HW       0.417000       1.00800           0
     28959 TIP3     5676     TP3      H2       HW       0.417000       1.00800           0
     28960 TIP3     5677     TP3      O        OW      -0.834000       16.0000           0
     28961 TIP3     5677     TP3      H1       HW       0.417000       1.00800           0
     28962 TIP3     5677     TP3      H2       HW       0.417000       1.00800           0
     28963 TIP3     5678     TP3      O        OW      -0.834000       16.0000           0
     28964 TIP3     5678     TP3      H1       HW       0.417000       1.00800           0
     28965 TIP3     5678     TP3      H2       HW       0.417000       1.00800           0
     28966 TIP3     5679     TP3      O        OW      -0.834000       16.0000           0
     28967 TIP3     5679     TP3      H1       HW       0.417000       1.00800           0
     28968 TIP3     5679     TP3      H2       HW       0.417000       1.00800           0
     28969 TIP3     5680     TP3      O        OW      -0.834000       16.0000           0
     28970 TIP3     5680     TP3      H1       HW       0.417000       1.00800           0
     28971 TIP3     5680     TP3      H2       HW       0.417000       1.00800           0
     28972 TIP3     5681     TP3      O        OW      -0.834000       16.0000           0
     28973 TIP3     5681     TP3      H1       HW       0.417000       1.00800           0
     28974 TIP3     5681     TP3      H2       HW       0.417000       1.00800           0
     28975 TIP3     5682     TP3      O        OW      -0.834000       16.0000           0
     28976 TIP3     5682     TP3      H1       HW       0.417000       1.00800           0
     28977 TIP3     5682     TP3      H2       HW       0.417000       1.00800           0
     28978 TIP3     5683     TP3      O        OW      -0.834000       16.0000           0
     28979 TIP3     5683     TP3      H1       HW       0.417000       1.00800           0
     28980 TIP3     5683     TP3      H2       HW       0.417000       1.00800           0
     28981 TIP3     5684     TP3      O        OW      -0.834000       16.0000           0
     28982 TIP3     5684     TP3      H1       HW       0.417000       1.00800           0
     28983 TIP3     5684     TP3      H2       HW       0.417000       1.00800           0
     28984 TIP3     5685     TP3      O        OW      -0.834000       16.0000           0
     28985 TIP3     5685     TP3      H1       HW       0.417000       1.00800           0
     28986 TIP3     5685     TP3      H2       HW       0.417000       1.00800           0
     28987 TIP3     5686     TP3      O        OW      -0.834000       16.0000           0
     28988 TIP3     5686     TP3      H1       HW       0.417000       1.00800           0
     28989 TIP3     5686     TP3      H2       HW       0.417000       1.00800           0
     28990 TIP3     5687     TP3      O        OW      -0.834000       16.0000           0
     28991 TIP3     5687     TP3      H1       HW       0.417000       1.00800           0
     28992 TIP3     5687     TP3      H2       HW       0.417000       1.00800           0
     28993 TIP3     5688     TP3      O        OW      -0.834000       16.0000           0
     28994 TIP3     5688     TP3      H1       HW       0.417000       1.00800           0
     28995 TIP3     5688     TP3      H2       HW       0.417000       1.00800           0
     28996 TIP3     5689     TP3      O        OW      -0.834000       16.0000           0
     28997 TIP3     5689     TP3      H1       HW       0.417000       1.00800           0
     28998 TIP3     5689     TP3      H2       HW       0.417000       1.00800           0
     28999 TIP3     5690     TP3      O        OW      -0.834000       16.0000           0
     29000 TIP3     5690     TP3      H1       HW       0.417000       1.00800           0
     29001 TIP3     5690     TP3      H2       HW       0.417000       1.00800           0
     29002 TIP3     5691     TP3      O        OW      -0.834000       16.0000           0
     29003 TIP3     5691     TP3      H1       HW       0.417000       1.00800           0
     29004 TIP3     5691     TP3      H2       HW       0.417000       1.00800           0
     29005 TIP3     5692     TP3      O        OW      -0.834000       16.0000           0
     29006 TIP3     5692     TP3      H1       HW       0.417000       1.00800           0
     29007 TIP3     5692     TP3      H2       HW       0.417000       1.00800           0
     29008 TIP3     5693     TP3      O        OW      -0.834000       16.0000           0
     29009 TIP3     5693     TP3      H1       HW       0.417000       1.00800           0
     29010 TIP3     5693     TP3      H2       HW       0.417000       1.00800           0
     29011 TIP3     5694     TP3      O        OW      -0.834000       16.0000           0
     29012 TIP3     5694     TP3      H1       HW       0.417000       1.00800           0
     29013 TIP3     5694     TP3      H2       HW       0.417000       1.00800           0
     29014 TIP3     5695     TP3      O        OW      -0.834000       16.0000           0
     29015 TIP3     5695     TP3      H1       HW       0.417000       1.00800           0
     29016 TIP3     5695     TP3      H2       HW       0.417000       1.00800           0
     29017 TIP3     5696     TP3      O        OW      -0.834000       16.0000           0
     29018 TIP3     5696     TP3      H1       HW       0.417000       1.00800           0
     29019 TIP3     5696     TP3      H2       HW       0.417000       1.00800           0
     29020 TIP3     5697     TP3      O        OW      -0.834000       16.0000           0
     29021 TIP3     5697     TP3      H1       HW       0.417000       1.00800           0
     29022 TIP3     5697     TP3      H2       HW       0.417000       1.00800           0
     29023 TIP3     5698     TP3      O        OW      -0.834000       16.0000           0
     29024 TIP3     5698     TP3      H1       HW       0.417000       1.00800           0
     29025 TIP3     5698     TP3      H2       HW       0.417000       1.00800           0
     29026 TIP3     5699     TP3      O        OW      -0.834000       16.0000           0
     29027 TIP3     5699     TP3      H1       HW       0.417000       1.00800           0
     29028 TIP3     5699     TP3      H2       HW       0.417000       1.00800           0
     29029 TIP3     5700     TP3      O        OW      -0.834000       16.0000           0
     29030 TIP3     5700     TP3      H1       HW       0.417000       1.00800           0
     29031 TIP3     5700     TP3      H2       HW       0.417000       1.00800           0
     29032 TIP3     5701     TP3      O        OW      -0.834000       16.0000           0
     29033 TIP3     5701     TP3      H1       HW       0.417000       1.00800           0
     29034 TIP3     5701     TP3      H2       HW       0.417000       1.00800           0
     29035 TIP3     5702     TP3      O        OW      -0.834000       16.0000           0
     29036 TIP3     5702     TP3      H1       HW       0.417000       1.00800           0
     29037 TIP3     5702     TP3      H2       HW       0.417000       1.00800           0
     29038 TIP3     5703     TP3      O        OW      -0.834000       16.0000           0
     29039 TIP3     5703     TP3      H1       HW       0.417000       1.00800           0
     29040 TIP3     5703     TP3      H2       HW       0.417000       1.00800           0
     29041 TIP3     5704     TP3      O        OW      -0.834000       16.0000           0
     29042 TIP3     5704     TP3      H1       HW       0.417000       1.00800           0
     29043 TIP3     5704     TP3      H2       HW       0.417000       1.00800           0
     29044 TIP3     5705     TP3      O        OW      -0.834000       16.0000           0
     29045 TIP3     5705     TP3      H1       HW       0.417000       1.00800           0
     29046 TIP3     5705     TP3      H2       HW       0.417000       1.00800           0
     29047 TIP3     5706     TP3      O        OW      -0.834000       16.0000           0
     29048 TIP3     5706     TP3      H1       HW       0.417000       1.00800           0
     29049 TIP3     5706     TP3      H2       HW       0.417000       1.00800           0
     29050 TIP3     5707     TP3      O        OW      -0.834000       16.0000           0
     29051 TIP3     5707     TP3      H1       HW       0.417000       1.00800           0
     29052 TIP3     5707     TP3      H2       HW       0.417000       1.00800           0
     29053 TIP3     5708     TP3      O        OW      -0.834000       16.0000           0
     29054 TIP3     5708     TP3      H1       HW       0.417000       1.00800           0
     29055 TIP3     5708     TP3      H2       HW       0.417000       1.00800           0
     29056 TIP3     5709     TP3      O        OW      -0.834000       16.0000           0
     29057 TIP3     5709     TP3      H1       HW       0.417000       1.00800           0
     29058 TIP3     5709     TP3      H2       HW       0.417000       1.00800           0
     29059 TIP3     5710     TP3      O        OW      -0.834000       16.0000           0
     29060 TIP3     5710     TP3      H1       HW       0.417000       1.00800           0
     29061 TIP3     5710     TP3      H2       HW       0.417000       1.00800           0
     29062 TIP3     5711     TP3      O        OW      -0.834000       16.0000           0
     29063 TIP3     5711     TP3      H1       HW       0.417000       1.00800           0
     29064 TIP3     5711     TP3      H2       HW       0.417000       1.00800           0
     29065 TIP3     5712     TP3      O        OW      -0.834000       16.0000           0
     29066 TIP3     5712     TP3      H1       HW       0.417000       1.00800           0
     29067 TIP3     5712     TP3      H2       HW       0.417000       1.00800           0
     29068 TIP3     5713     TP3      O        OW      -0.834000       16.0000           0
     29069 TIP3     5713     TP3      H1       HW       0.417000       1.00800           0
     29070 TIP3     5713     TP3      H2       HW       0.417000       1.00800           0
     29071 TIP3     5714     TP3      O        OW      -0.834000       16.0000           0
     29072 TIP3     5714     TP3      H1       HW       0.417000       1.00800           0
     29073 TIP3     5714     TP3      H2       HW       0.417000       1.00800           0
     29074 TIP3     5715     TP3      O        OW      -0.834000       16.0000           0
     29075 TIP3     5715     TP3      H1       HW       0.417000       1.00800           0
     29076 TIP3     5715     TP3      H2       HW       0.417000       1.00800           0
     29077 TIP3     5716     TP3      O        OW      -0.834000       16.0000           0
     29078 TIP3     5716     TP3      H1       HW       0.417000       1.00800           0
     29079 TIP3     5716     TP3      H2       HW       0.417000       1.00800           0
     29080 TIP3     5717     TP3      O        OW      -0.834000       16.0000           0
     29081 TIP3     5717     TP3      H1       HW       0.417000       1.00800           0
     29082 TIP3     5717     TP3      H2       HW       0.417000       1.00800           0
     29083 TIP3     5718     TP3      O        OW      -0.834000       16.0000           0
     29084 TIP3     5718     TP3      H1       HW       0.417000       1.00800           0
     29085 TIP3     5718     TP3      H2       HW       0.417000       1.00800           0
     29086 TIP3     5719     TP3      O        OW      -0.834000       16.0000           0
     29087 TIP3     5719     TP3      H1       HW       0.417000       1.00800           0
     29088 TIP3     5719     TP3      H2       HW       0.417000       1.00800           0
     29089 TIP3     5720     TP3      O        OW      -0.834000       16.0000           0
     29090 TIP3     5720     TP3      H1       HW       0.417000       1.00800           0
     29091 TIP3     5720     TP3      H2       HW       0.417000       1.00800           0
     29092 TIP3     5721     TP3      O        OW      -0.834000       16.0000           0
     29093 TIP3     5721     TP3      H1       HW       0.417000       1.00800           0
     29094 TIP3     5721     TP3      H2       HW       0.417000       1.00800           0
     29095 TIP3     5722     TP3      O        OW      -0.834000       16.0000           0
     29096 TIP3     5722     TP3      H1       HW       0.417000       1.00800           0
     29097 TIP3     5722     TP3      H2       HW       0.417000       1.00800           0
     29098 TIP3     5723     TP3      O        OW      -0.834000       16.0000           0
     29099 TIP3     5723     TP3      H1       HW       0.417000       1.00800           0
     29100 TIP3     5723     TP3      H2       HW       0.417000       1.00800           0
     29101 TIP3     5724     TP3      O        OW      -0.834000       16.0000           0
     29102 TIP3     5724     TP3      H1       HW       0.417000       1.00800           0
     29103 TIP3     5724     TP3      H2       HW       0.417000       1.00800           0
     29104 TIP3     5725     TP3      O        OW      -0.834000       16.0000           0
     29105 TIP3     5725     TP3      H1       HW       0.417000       1.00800           0
     29106 TIP3     5725     TP3      H2       HW       0.417000       1.00800           0
     29107 TIP3     5726     TP3      O        OW      -0.834000       16.0000           0
     29108 TIP3     5726     TP3      H1       HW       0.417000       1.00800           0
     29109 TIP3     5726     TP3      H2       HW       0.417000       1.00800           0
     29110 TIP3     5727     TP3      O        OW      -0.834000       16.0000           0
     29111 TIP3     5727     TP3      H1       HW       0.417000       1.00800           0
     29112 TIP3     5727     TP3      H2       HW       0.417000       1.00800           0
     29113 TIP3     5728     TP3      O        OW      -0.834000       16.0000           0
     29114 TIP3     5728     TP3      H1       HW       0.417000       1.00800           0
     29115 TIP3     5728     TP3      H2       HW       0.417000       1.00800           0
     29116 TIP3     5729     TP3      O        OW      -0.834000       16.0000           0
     29117 TIP3     5729     TP3      H1       HW       0.417000       1.00800           0
     29118 TIP3     5729     TP3      H2       HW       0.417000       1.00800           0
     29119 TIP3     5730     TP3      O        OW      -0.834000       16.0000           0
     29120 TIP3     5730     TP3      H1       HW       0.417000       1.00800           0
     29121 TIP3     5730     TP3      H2       HW       0.417000       1.00800           0
     29122 TIP3     5731     TP3      O        OW      -0.834000       16.0000           0
     29123 TIP3     5731     TP3      H1       HW       0.417000       1.00800           0
     29124 TIP3     5731     TP3      H2       HW       0.417000       1.00800           0
     29125 TIP3     5732     TP3      O        OW      -0.834000       16.0000           0
     29126 TIP3     5732     TP3      H1       HW       0.417000       1.00800           0
     29127 TIP3     5732     TP3      H2       HW       0.417000       1.00800           0
     29128 TIP3     5733     TP3      O        OW      -0.834000       16.0000           0
     29129 TIP3     5733     TP3      H1       HW       0.417000       1.00800           0
     29130 TIP3     5733     TP3      H2       HW       0.417000       1.00800           0
     29131 TIP3     5734     TP3      O        OW      -0.834000       16.0000           0
     29132 TIP3     5734     TP3      H1       HW       0.417000       1.00800           0
     29133 TIP3     5734     TP3      H2       HW       0.417000       1.00800           0
     29134 TIP3     5735     TP3      O        OW      -0.834000       16.0000           0
     29135 TIP3     5735     TP3      H1       HW       0.417000       1.00800           0
     29136 TIP3     5735     TP3      H2       HW       0.417000       1.00800           0
     29137 TIP3     5736     TP3      O        OW      -0.834000       16.0000           0
     29138 TIP3     5736     TP3      H1       HW       0.417000       1.00800           0
     29139 TIP3     5736     TP3      H2       HW       0.417000       1.00800           0
     29140 TIP3     5737     TP3      O        OW      -0.834000       16.0000           0
     29141 TIP3     5737     TP3      H1       HW       0.417000       1.00800           0
     29142 TIP3     5737     TP3      H2       HW       0.417000       1.00800           0
     29143 TIP3     5738     TP3      O        OW      -0.834000       16.0000           0
     29144 TIP3     5738     TP3      H1       HW       0.417000       1.00800           0
     29145 TIP3     5738     TP3      H2       HW       0.417000       1.00800           0
     29146 TIP3     5739     TP3      O        OW      -0.834000       16.0000           0
     29147 TIP3     5739     TP3      H1       HW       0.417000       1.00800           0
     29148 TIP3     5739     TP3      H2       HW       0.417000       1.00800           0
     29149 TIP3     5740     TP3      O        OW      -0.834000       16.0000           0
     29150 TIP3     5740     TP3      H1       HW       0.417000       1.00800           0
     29151 TIP3     5740     TP3      H2       HW       0.417000       1.00800           0
     29152 TIP3     5741     TP3      O        OW      -0.834000       16.0000           0
     29153 TIP3     5741     TP3      H1       HW       0.417000       1.00800           0
     29154 TIP3     5741     TP3      H2       HW       0.417000       1.00800           0
     29155 TIP3     5742     TP3      O        OW      -0.834000       16.0000           0
     29156 TIP3     5742     TP3      H1       HW       0.417000       1.00800           0
     29157 TIP3     5742     TP3      H2       HW       0.417000       1.00800           0
     29158 TIP3     5743     TP3      O        OW      -0.834000       16.0000           0
     29159 TIP3     5743     TP3      H1       HW       0.417000       1.00800           0
     29160 TIP3     5743     TP3      H2       HW       0.417000       1.00800           0
     29161 TIP3     5744     TP3      O        OW      -0.834000       16.0000           0
     29162 TIP3     5744     TP3      H1       HW       0.417000       1.00800           0
     29163 TIP3     5744     TP3      H2       HW       0.417000       1.00800           0
     29164 TIP3     5745     TP3      O        OW      -0.834000       16.0000           0
     29165 TIP3     5745     TP3      H1       HW       0.417000       1.00800           0
     29166 TIP3     5745     TP3      H2       HW       0.417000       1.00800           0
     29167 TIP3     5746     TP3      O        OW      -0.834000       16.0000           0
     29168 TIP3     5746     TP3      H1       HW       0.417000       1.00800           0
     29169 TIP3     5746     TP3      H2       HW       0.417000       1.00800           0
     29170 TIP3     5747     TP3      O        OW      -0.834000       16.0000           0
     29171 TIP3     5747     TP3      H1       HW       0.417000       1.00800           0
     29172 TIP3     5747     TP3      H2       HW       0.417000       1.00800           0
     29173 TIP3     5748     TP3      O        OW      -0.834000       16.0000           0
     29174 TIP3     5748     TP3      H1       HW       0.417000       1.00800           0
     29175 TIP3     5748     TP3      H2       HW       0.417000       1.00800           0
     29176 TIP3     5749     TP3      O        OW      -0.834000       16.0000           0
     29177 TIP3     5749     TP3      H1       HW       0.417000       1.00800           0
     29178 TIP3     5749     TP3      H2       HW       0.417000       1.00800           0
     29179 TIP3     5750     TP3      O        OW      -0.834000       16.0000           0
     29180 TIP3     5750     TP3      H1       HW       0.417000       1.00800           0
     29181 TIP3     5750     TP3      H2       HW       0.417000       1.00800           0
     29182 TIP3     5751     TP3      O        OW      -0.834000       16.0000           0
     29183 TIP3     5751     TP3      H1       HW       0.417000       1.00800           0
     29184 TIP3     5751     TP3      H2       HW       0.417000       1.00800           0
     29185 TIP3     5752     TP3      O        OW      -0.834000       16.0000           0
     29186 TIP3     5752     TP3      H1       HW       0.417000       1.00800           0
     29187 TIP3     5752     TP3      H2       HW       0.417000       1.00800           0
     29188 TIP3     5753     TP3      O        OW      -0.834000       16.0000           0
     29189 TIP3     5753     TP3      H1       HW       0.417000       1.00800           0
     29190 TIP3     5753     TP3      H2       HW       0.417000       1.00800           0
     29191 TIP3     5754     TP3      O        OW      -0.834000       16.0000           0
     29192 TIP3     5754     TP3      H1       HW       0.417000       1.00800           0
     29193 TIP3     5754     TP3      H2       HW       0.417000       1.00800           0
     29194 TIP3     5755     TP3      O        OW      -0.834000       16.0000           0
     29195 TIP3     5755     TP3      H1       HW       0.417000       1.00800           0
     29196 TIP3     5755     TP3      H2       HW       0.417000       1.00800           0
     29197 TIP3     5756     TP3      O        OW      -0.834000       16.0000           0
     29198 TIP3     5756     TP3      H1       HW       0.417000       1.00800           0
     29199 TIP3     5756     TP3      H2       HW       0.417000       1.00800           0
     29200 TIP3     5757     TP3      O        OW      -0.834000       16.0000           0
     29201 TIP3     5757     TP3      H1       HW       0.417000       1.00800           0
     29202 TIP3     5757     TP3      H2       HW       0.417000       1.00800           0
     29203 TIP3     5758     TP3      O        OW      -0.834000       16.0000           0
     29204 TIP3     5758     TP3      H1       HW       0.417000       1.00800           0
     29205 TIP3     5758     TP3      H2       HW       0.417000       1.00800           0
     29206 TIP3     5759     TP3      O        OW      -0.834000       16.0000           0
     29207 TIP3     5759     TP3      H1       HW       0.417000       1.00800           0
     29208 TIP3     5759     TP3      H2       HW       0.417000       1.00800           0
     29209 TIP3     5760     TP3      O        OW      -0.834000       16.0000           0
     29210 TIP3     5760     TP3      H1       HW       0.417000       1.00800           0
     29211 TIP3     5760     TP3      H2       HW       0.417000       1.00800           0
     29212 TIP3     5761     TP3      O        OW      -0.834000       16.0000           0
     29213 TIP3     5761     TP3      H1       HW       0.417000       1.00800           0
     29214 TIP3     5761     TP3      H2       HW       0.417000       1.00800           0
     29215 TIP3     5762     TP3      O        OW      -0.834000       16.0000           0
     29216 TIP3     5762     TP3      H1       HW       0.417000       1.00800           0
     29217 TIP3     5762     TP3      H2       HW       0.417000       1.00800           0
     29218 TIP3     5763     TP3      O        OW      -0.834000       16.0000           0
     29219 TIP3     5763     TP3      H1       HW       0.417000       1.00800           0
     29220 TIP3     5763     TP3      H2       HW       0.417000       1.00800           0
     29221 TIP3     5764     TP3      O        OW      -0.834000       16.0000           0
     29222 TIP3     5764     TP3      H1       HW       0.417000       1.00800           0
     29223 TIP3     5764     TP3      H2       HW       0.417000       1.00800           0
     29224 TIP3     5765     TP3      O        OW      -0.834000       16.0000           0
     29225 TIP3     5765     TP3      H1       HW       0.417000       1.00800           0
     29226 TIP3     5765     TP3      H2       HW       0.417000       1.00800           0
     29227 TIP3     5766     TP3      O        OW      -0.834000       16.0000           0
     29228 TIP3     5766     TP3      H1       HW       0.417000       1.00800           0
     29229 TIP3     5766     TP3      H2       HW       0.417000       1.00800           0
     29230 TIP3     5767     TP3      O        OW      -0.834000       16.0000           0
     29231 TIP3     5767     TP3      H1       HW       0.417000       1.00800           0
     29232 TIP3     5767     TP3      H2       HW       0.417000       1.00800           0
     29233 TIP3     5768     TP3      O        OW      -0.834000       16.0000           0
     29234 TIP3     5768     TP3      H1       HW       0.417000       1.00800           0
     29235 TIP3     5768     TP3      H2       HW       0.417000       1.00800           0
     29236 TIP3     5769     TP3      O        OW      -0.834000       16.0000           0
     29237 TIP3     5769     TP3      H1       HW       0.417000       1.00800           0
     29238 TIP3     5769     TP3      H2       HW       0.417000       1.00800           0
     29239 TIP3     5770     TP3      O        OW      -0.834000       16.0000           0
     29240 TIP3     5770     TP3      H1       HW       0.417000       1.00800           0
     29241 TIP3     5770     TP3      H2       HW       0.417000       1.00800           0
     29242 TIP3     5771     TP3      O        OW      -0.834000       16.0000           0
     29243 TIP3     5771     TP3      H1       HW       0.417000       1.00800           0
     29244 TIP3     5771     TP3      H2       HW       0.417000       1.00800           0
     29245 TIP3     5772     TP3      O        OW      -0.834000       16.0000           0
     29246 TIP3     5772     TP3      H1       HW       0.417000       1.00800           0
     29247 TIP3     5772     TP3      H2       HW       0.417000       1.00800           0
     29248 TIP3     5773     TP3      O        OW      -0.834000       16.0000           0
     29249 TIP3     5773     TP3      H1       HW       0.417000       1.00800           0
     29250 TIP3     5773     TP3      H2       HW       0.417000       1.00800           0
     29251 TIP3     5774     TP3      O        OW      -0.834000       16.0000           0
     29252 TIP3     5774     TP3      H1       HW       0.417000       1.00800           0
     29253 TIP3     5774     TP3      H2       HW       0.417000       1.00800           0
     29254 TIP3     5775     TP3      O        OW      -0.834000       16.0000           0
     29255 TIP3     5775     TP3      H1       HW       0.417000       1.00800           0
     29256 TIP3     5775     TP3      H2       HW       0.417000       1.00800           0
     29257 TIP3     5776     TP3      O        OW      -0.834000       16.0000           0
     29258 TIP3     5776     TP3      H1       HW       0.417000       1.00800           0
     29259 TIP3     5776     TP3      H2       HW       0.417000       1.00800           0
     29260 TIP3     5777     TP3      O        OW      -0.834000       16.0000           0
     29261 TIP3     5777     TP3      H1       HW       0.417000       1.00800           0
     29262 TIP3     5777     TP3      H2       HW       0.417000       1.00800           0
     29263 TIP3     5778     TP3      O        OW      -0.834000       16.0000           0
     29264 TIP3     5778     TP3      H1       HW       0.417000       1.00800           0
     29265 TIP3     5778     TP3      H2       HW       0.417000       1.00800           0
     29266 TIP3     5779     TP3      O        OW      -0.834000       16.0000           0
     29267 TIP3     5779     TP3      H1       HW       0.417000       1.00800           0
     29268 TIP3     5779     TP3      H2       HW       0.417000       1.00800           0
     29269 TIP3     5780     TP3      O        OW      -0.834000       16.0000           0
     29270 TIP3     5780     TP3      H1       HW       0.417000       1.00800           0
     29271 TIP3     5780     TP3      H2       HW       0.417000       1.00800           0
     29272 TIP3     5781     TP3      O        OW      -0.834000       16.0000           0
     29273 TIP3     5781     TP3      H1       HW       0.417000       1.00800           0
     29274 TIP3     5781     TP3      H2       HW       0.417000       1.00800           0
     29275 TIP3     5782     TP3      O        OW      -0.834000       16.0000           0
     29276 TIP3     5782     TP3      H1       HW       0.417000       1.00800           0
     29277 TIP3     5782     TP3      H2       HW       0.417000       1.00800           0
     29278 TIP3     5783     TP3      O        OW      -0.834000       16.0000           0
     29279 TIP3     5783     TP3      H1       HW       0.417000       1.00800           0
     29280 TIP3     5783     TP3      H2       HW       0.417000       1.00800           0
     29281 TIP3     5784     TP3      O        OW      -0.834000       16.0000           0
     29282 TIP3     5784     TP3      H1       HW       0.417000       1.00800           0
     29283 TIP3     5784     TP3      H2       HW       0.417000       1.00800           0
     29284 TIP3     5785     TP3      O        OW      -0.834000       16.0000           0
     29285 TIP3     5785     TP3      H1       HW       0.417000       1.00800           0
     29286 TIP3     5785     TP3      H2       HW       0.417000       1.00800           0
     29287 TIP3     5786     TP3      O        OW      -0.834000       16.0000           0
     29288 TIP3     5786     TP3      H1       HW       0.417000       1.00800           0
     29289 TIP3     5786     TP3      H2       HW       0.417000       1.00800           0
     29290 TIP3     5787     TP3      O        OW      -0.834000       16.0000           0
     29291 TIP3     5787     TP3      H1       HW       0.417000       1.00800           0
     29292 TIP3     5787     TP3      H2       HW       0.417000       1.00800           0
     29293 TIP3     5788     TP3      O        OW      -0.834000       16.0000           0
     29294 TIP3     5788     TP3      H1       HW       0.417000       1.00800           0
     29295 TIP3     5788     TP3      H2       HW       0.417000       1.00800           0
     29296 TIP3     5789     TP3      O        OW      -0.834000       16.0000           0
     29297 TIP3     5789     TP3      H1       HW       0.417000       1.00800           0
     29298 TIP3     5789     TP3      H2       HW       0.417000       1.00800           0
     29299 TIP3     5790     TP3      O        OW      -0.834000       16.0000           0
     29300 TIP3     5790     TP3      H1       HW       0.417000       1.00800           0
     29301 TIP3     5790     TP3      H2       HW       0.417000       1.00800           0
     29302 TIP3     5791     TP3      O        OW      -0.834000       16.0000           0
     29303 TIP3     5791     TP3      H1       HW       0.417000       1.00800           0
     29304 TIP3     5791     TP3      H2       HW       0.417000       1.00800           0
     29305 TIP3     5792     TP3      O        OW      -0.834000       16.0000           0
     29306 TIP3     5792     TP3      H1       HW       0.417000       1.00800           0
     29307 TIP3     5792     TP3      H2       HW       0.417000       1.00800           0
     29308 TIP3     5793     TP3      O        OW      -0.834000       16.0000           0
     29309 TIP3     5793     TP3      H1       HW       0.417000       1.00800           0
     29310 TIP3     5793     TP3      H2       HW       0.417000       1.00800           0
     29311 TIP3     5794     TP3      O        OW      -0.834000       16.0000           0
     29312 TIP3     5794     TP3      H1       HW       0.417000       1.00800           0
     29313 TIP3     5794     TP3      H2       HW       0.417000       1.00800           0
     29314 TIP3     5795     TP3      O        OW      -0.834000       16.0000           0
     29315 TIP3     5795     TP3      H1       HW       0.417000       1.00800           0
     29316 TIP3     5795     TP3      H2       HW       0.417000       1.00800           0
     29317 TIP3     5796     TP3      O        OW      -0.834000       16.0000           0
     29318 TIP3     5796     TP3      H1       HW       0.417000       1.00800           0
     29319 TIP3     5796     TP3      H2       HW       0.417000       1.00800           0
     29320 TIP3     5797     TP3      O        OW      -0.834000       16.0000           0
     29321 TIP3     5797     TP3      H1       HW       0.417000       1.00800           0
     29322 TIP3     5797     TP3      H2       HW       0.417000       1.00800           0
     29323 TIP3     5798     TP3      O        OW      -0.834000       16.0000           0
     29324 TIP3     5798     TP3      H1       HW       0.417000       1.00800           0
     29325 TIP3     5798     TP3      H2       HW       0.417000       1.00800           0
     29326 TIP3     5799     TP3      O        OW      -0.834000       16.0000           0
     29327 TIP3     5799     TP3      H1       HW       0.417000       1.00800           0
     29328 TIP3     5799     TP3      H2       HW       0.417000       1.00800           0
     29329 TIP3     5800     TP3      O        OW      -0.834000       16.0000           0
     29330 TIP3     5800     TP3      H1       HW       0.417000       1.00800           0
     29331 TIP3     5800     TP3      H2       HW       0.417000       1.00800           0
     29332 TIP3     5801     TP3      O        OW      -0.834000       16.0000           0
     29333 TIP3     5801     TP3      H1       HW       0.417000       1.00800           0
     29334 TIP3     5801     TP3      H2       HW       0.417000       1.00800           0
     29335 TIP3     5802     TP3      O        OW      -0.834000       16.0000           0
     29336 TIP3     5802     TP3      H1       HW       0.417000       1.00800           0
     29337 TIP3     5802     TP3      H2       HW       0.417000       1.00800           0
     29338 TIP3     5803     TP3      O        OW      -0.834000       16.0000           0
     29339 TIP3     5803     TP3      H1       HW       0.417000       1.00800           0
     29340 TIP3     5803     TP3      H2       HW       0.417000       1.00800           0
     29341 TIP3     5804     TP3      O        OW      -0.834000       16.0000           0
     29342 TIP3     5804     TP3      H1       HW       0.417000       1.00800           0
     29343 TIP3     5804     TP3      H2       HW       0.417000       1.00800           0
     29344 TIP3     5805     TP3      O        OW      -0.834000       16.0000           0
     29345 TIP3     5805     TP3      H1       HW       0.417000       1.00800           0
     29346 TIP3     5805     TP3      H2       HW       0.417000       1.00800           0
     29347 TIP3     5806     TP3      O        OW      -0.834000       16.0000           0
     29348 TIP3     5806     TP3      H1       HW       0.417000       1.00800           0
     29349 TIP3     5806     TP3      H2       HW       0.417000       1.00800           0
     29350 TIP3     5807     TP3      O        OW      -0.834000       16.0000           0
     29351 TIP3     5807     TP3      H1       HW       0.417000       1.00800           0
     29352 TIP3     5807     TP3      H2       HW       0.417000       1.00800           0
     29353 TIP3     5808     TP3      O        OW      -0.834000       16.0000           0
     29354 TIP3     5808     TP3      H1       HW       0.417000       1.00800           0
     29355 TIP3     5808     TP3      H2       HW       0.417000       1.00800           0
     29356 TIP3     5809     TP3      O        OW      -0.834000       16.0000           0
     29357 TIP3     5809     TP3      H1       HW       0.417000       1.00800           0
     29358 TIP3     5809     TP3      H2       HW       0.417000       1.00800           0
     29359 TIP3     5810     TP3      O        OW      -0.834000       16.0000           0
     29360 TIP3     5810     TP3      H1       HW       0.417000       1.00800           0
     29361 TIP3     5810     TP3      H2       HW       0.417000       1.00800           0
     29362 TIP3     5811     TP3      O        OW      -0.834000       16.0000           0
     29363 TIP3     5811     TP3      H1       HW       0.417000       1.00800           0
     29364 TIP3     5811     TP3      H2       HW       0.417000       1.00800           0
     29365 TIP3     5812     TP3      O        OW      -0.834000       16.0000           0
     29366 TIP3     5812     TP3      H1       HW       0.417000       1.00800           0
     29367 TIP3     5812     TP3      H2       HW       0.417000       1.00800           0
     29368 TIP3     5813     TP3      O        OW      -0.834000       16.0000           0
     29369 TIP3     5813     TP3      H1       HW       0.417000       1.00800           0
     29370 TIP3     5813     TP3      H2       HW       0.417000       1.00800           0
     29371 TIP3     5814     TP3      O        OW      -0.834000       16.0000           0
     29372 TIP3     5814     TP3      H1       HW       0.417000       1.00800           0
     29373 TIP3     5814     TP3      H2       HW       0.417000       1.00800           0
     29374 TIP3     5815     TP3      O        OW      -0.834000       16.0000           0
     29375 TIP3     5815     TP3      H1       HW       0.417000       1.00800           0
     29376 TIP3     5815     TP3      H2       HW       0.417000       1.00800           0
     29377 TIP3     5816     TP3      O        OW      -0.834000       16.0000           0
     29378 TIP3     5816     TP3      H1       HW       0.417000       1.00800           0
     29379 TIP3     5816     TP3      H2       HW       0.417000       1.00800           0
     29380 TIP3     5817     TP3      O        OW      -0.834000       16.0000           0
     29381 TIP3     5817     TP3      H1       HW       0.417000       1.00800           0
     29382 TIP3     5817     TP3      H2       HW       0.417000       1.00800           0
     29383 TIP3     5818     TP3      O        OW      -0.834000       16.0000           0
     29384 TIP3     5818     TP3      H1       HW       0.417000       1.00800           0
     29385 TIP3     5818     TP3      H2       HW       0.417000       1.00800           0
     29386 TIP3     5819     TP3      O        OW      -0.834000       16.0000           0
     29387 TIP3     5819     TP3      H1       HW       0.417000       1.00800           0
     29388 TIP3     5819     TP3      H2       HW       0.417000       1.00800           0
     29389 TIP3     5820     TP3      O        OW      -0.834000       16.0000           0
     29390 TIP3     5820     TP3      H1       HW       0.417000       1.00800           0
     29391 TIP3     5820     TP3      H2       HW       0.417000       1.00800           0
     29392 TIP3     5821     TP3      O        OW      -0.834000       16.0000           0
     29393 TIP3     5821     TP3      H1       HW       0.417000       1.00800           0
     29394 TIP3     5821     TP3      H2       HW       0.417000       1.00800           0
     29395 TIP3     5822     TP3      O        OW      -0.834000       16.0000           0
     29396 TIP3     5822     TP3      H1       HW       0.417000       1.00800           0
     29397 TIP3     5822     TP3      H2       HW       0.417000       1.00800           0
     29398 TIP3     5823     TP3      O        OW      -0.834000       16.0000           0
     29399 TIP3     5823     TP3      H1       HW       0.417000       1.00800           0
     29400 TIP3     5823     TP3      H2       HW       0.417000       1.00800           0
     29401 TIP3     5824     TP3      O        OW      -0.834000       16.0000           0
     29402 TIP3     5824     TP3      H1       HW       0.417000       1.00800           0
     29403 TIP3     5824     TP3      H2       HW       0.417000       1.00800           0
     29404 TIP3     5825     TP3      O        OW      -0.834000       16.0000           0
     29405 TIP3     5825     TP3      H1       HW       0.417000       1.00800           0
     29406 TIP3     5825     TP3      H2       HW       0.417000       1.00800           0
     29407 TIP3     5826     TP3      O        OW      -0.834000       16.0000           0
     29408 TIP3     5826     TP3      H1       HW       0.417000       1.00800           0
     29409 TIP3     5826     TP3      H2       HW       0.417000       1.00800           0
     29410 TIP3     5827     TP3      O        OW      -0.834000       16.0000           0
     29411 TIP3     5827     TP3      H1       HW       0.417000       1.00800           0
     29412 TIP3     5827     TP3      H2       HW       0.417000       1.00800           0
     29413 TIP3     5828     TP3      O        OW      -0.834000       16.0000           0
     29414 TIP3     5828     TP3      H1       HW       0.417000       1.00800           0
     29415 TIP3     5828     TP3      H2       HW       0.417000       1.00800           0
     29416 TIP3     5829     TP3      O        OW      -0.834000       16.0000           0
     29417 TIP3     5829     TP3      H1       HW       0.417000       1.00800           0
     29418 TIP3     5829     TP3      H2       HW       0.417000       1.00800           0
     29419 TIP3     5830     TP3      O        OW      -0.834000       16.0000           0
     29420 TIP3     5830     TP3      H1       HW       0.417000       1.00800           0
     29421 TIP3     5830     TP3      H2       HW       0.417000       1.00800           0
     29422 TIP3     5831     TP3      O        OW      -0.834000       16.0000           0
     29423 TIP3     5831     TP3      H1       HW       0.417000       1.00800           0
     29424 TIP3     5831     TP3      H2       HW       0.417000       1.00800           0
     29425 TIP3     5832     TP3      O        OW      -0.834000       16.0000           0
     29426 TIP3     5832     TP3      H1       HW       0.417000       1.00800           0
     29427 TIP3     5832     TP3      H2       HW       0.417000       1.00800           0
     29428 TIP3     5833     TP3      O        OW      -0.834000       16.0000           0
     29429 TIP3     5833     TP3      H1       HW       0.417000       1.00800           0
     29430 TIP3     5833     TP3      H2       HW       0.417000       1.00800           0
     29431 TIP3     5834     TP3      O        OW      -0.834000       16.0000           0
     29432 TIP3     5834     TP3      H1       HW       0.417000       1.00800           0
     29433 TIP3     5834     TP3      H2       HW       0.417000       1.00800           0
     29434 TIP3     5835     TP3      O        OW      -0.834000       16.0000           0
     29435 TIP3     5835     TP3      H1       HW       0.417000       1.00800           0
     29436 TIP3     5835     TP3      H2       HW       0.417000       1.00800           0
     29437 TIP3     5836     TP3      O        OW      -0.834000       16.0000           0
     29438 TIP3     5836     TP3      H1       HW       0.417000       1.00800           0
     29439 TIP3     5836     TP3      H2       HW       0.417000       1.00800           0
     29440 TIP3     5837     TP3      O        OW      -0.834000       16.0000           0
     29441 TIP3     5837     TP3      H1       HW       0.417000       1.00800           0
     29442 TIP3     5837     TP3      H2       HW       0.417000       1.00800           0
     29443 TIP3     5838     TP3      O        OW      -0.834000       16.0000           0
     29444 TIP3     5838     TP3      H1       HW       0.417000       1.00800           0
     29445 TIP3     5838     TP3      H2       HW       0.417000       1.00800           0
     29446 TIP3     5839     TP3      O        OW      -0.834000       16.0000           0
     29447 TIP3     5839     TP3      H1       HW       0.417000       1.00800           0
     29448 TIP3     5839     TP3      H2       HW       0.417000       1.00800           0
     29449 TIP3     5840     TP3      O        OW      -0.834000       16.0000           0
     29450 TIP3     5840     TP3      H1       HW       0.417000       1.00800           0
     29451 TIP3     5840     TP3      H2       HW       0.417000       1.00800           0
     29452 TIP3     5841     TP3      O        OW      -0.834000       16.0000           0
     29453 TIP3     5841     TP3      H1       HW       0.417000       1.00800           0
     29454 TIP3     5841     TP3      H2       HW       0.417000       1.00800           0
     29455 TIP3     5842     TP3      O        OW      -0.834000       16.0000           0
     29456 TIP3     5842     TP3      H1       HW       0.417000       1.00800           0
     29457 TIP3     5842     TP3      H2       HW       0.417000       1.00800           0
     29458 TIP3     5843     TP3      O        OW      -0.834000       16.0000           0
     29459 TIP3     5843     TP3      H1       HW       0.417000       1.00800           0
     29460 TIP3     5843     TP3      H2       HW       0.417000       1.00800           0
     29461 TIP3     5844     TP3      O        OW      -0.834000       16.0000           0
     29462 TIP3     5844     TP3      H1       HW       0.417000       1.00800           0
     29463 TIP3     5844     TP3      H2       HW       0.417000       1.00800           0
     29464 TIP3     5845     TP3      O        OW      -0.834000       16.0000           0
     29465 TIP3     5845     TP3      H1       HW       0.417000       1.00800           0
     29466 TIP3     5845     TP3      H2       HW       0.417000       1.00800           0
     29467 TIP3     5846     TP3      O        OW      -0.834000       16.0000           0
     29468 TIP3     5846     TP3      H1       HW       0.417000       1.00800           0
     29469 TIP3     5846     TP3      H2       HW       0.417000       1.00800           0

     29351 !NBOND: bonds
        23        25        30        32        44        46        58        60
        82        84       191       193       155       152       325       327
       289       286       459       461       423       420       593       595
       557       554       727       729       691       688       861       863
       825       822       995       997       959       956      1129      1131
      1093      1090      1263      1265      1227      1224      1397      1399
      1361      1358      1531      1533      1495      1492      1665      1667
      1629      1626      1799      1801      1763      1760      1933      1935
      1897      1894      2067      2069      2031      2028      2201      2203
      2165      2162      2335      2337      2299      2296      2469      2471
      2433      2430      2603      2605      2567      2564      2737      2739
      2701      2698      2871      2873      2835      2832      3005      3007
      2969      2966      3139      3141      3103      3100      3273      3275
      3237      3234      3407      3409      3371      3368      3541      3543
      3505      3502      3675      3677      3639      3636      3809      3811
      3773      3770      3943      3945      3907      3904      4077      4079
      4041      4038      4211      4213      4175      4172      4345      4347
      4309      4306      4479      4481      4443      4440      4613      4615
      4577      4574      4747      4749      4711      4708      4881      4883
      4845      4842      5015      5017      4979      4976      5149      5151
      5113      5110      5283      5285      5247      5244      5417      5419
      5381      5378      5551      5553      5515      5512      5685      5687
      5649      5646      5819      5821      5783      5780      5953      5955
      5917      5914      6087      6089      6051      6048      6221      6223
      6185      6182      6355      6357      6319      6316      6489      6491
      6453      6450      6623      6625      6587      6584      6757      6759
      6721      6718      6891      6893      6855      6852      7025      7027
      6989      6986      7159      7161      7123      7120      7293      7295
      7257      7254      7427      7429      7391      7388      7561      7563
      7525      7522      7695      7697      7659      7656      7829      7831
      7793      7790      7963      7965      7927      7924      8097      8099
      8061      8058      8231      8233      8195      8192      8365      8367
      8329      8326      8499      8501      8463      8460      8633      8635
      8597      8594      8767      8769      8731      8728      8901      8903
      8865      8862      9035      9037      8999      8996      9169      9171
      9133      9130      9303      9305      9267      9264      9437      9439
      9401      9398      9571      9573      9535      9532      9705      9707
      9669      9666      9839      9841      9803      9800      9973      9975
      9937      9934     10107     10109     10071     10068     10241     10243
     10205     10202     10375     10377     10339     10336     10509     10511
     10473     10470     10643     10645     10607     10604     10777     10779
     10741     10738     10911     10913     10875     10872     11045     11047
     11009     11006     11179     11181     11143     11140     11313     11315
     11277     11274     11447     11449     11411     11408     11581     11583
     11545     11542     11715     11717     11679     11676     11849     11851
     11813     11810         1         2         1         3         1         4
         1         5         5         6         5         7         5        23
         7         8         7         9         7        10        10        11
        10        12        10        13        13        14        13        15
        13        16        16        17        16        18        16        19
        19        20        19        21        19        22        23        24
        25        26        25        27        27        28        27        29
        27        30        30        31        32        33        32        42
        33        34        33        35        33        36        36        37
        36        38        36        39        39        40        39        41
        39        42        42        43        42        44        44        45
        46        47        46        56        47        48        47        49
        47        50        50        51        50        52        50        53
        53        54        53        55        53        56        56        57
        56        58        58        59        60        61        60        62
        62        63        62        64        62        82        64        65
        64        66        64        67        67        68        67        69
        67        70        70        71        70        72        70        73
        73        74        73        75        75        76        75        79
        76        77        76        78        79        80        79        81
        82        83        84        85        84        86        86        87
        86        88        86       106        88        89        88        90
        88        91        91        92        91        93        91        94
        94        95        94        96        94        97        97        98
        97        99        99       100        99       103       100       101
       100       102       103       104       103       105       106       107
       106       108       109       110       109       111       109       112
       109       113       113       114       113       115       113       116
       116       117       116       118       116       119       119       120
       119       121       119       122       122       123       122       124
       122       125       125       126       125       127       125       128
       128       129       128       130       128       131       131       132
       131       133       131       134       134       135       134       136
       134       137       137       138       137       139       137       140
       140       141       140       142       140       143       143       144
       143       145       143       146       146       147       146       148
       146       149       149       150       149       151       149       152
       152       153       152       154       155       156       155       157
       157       158       158       159       158       160       158       161
       161       162       161       163       161       190       163       164
       163       165       163       166       166       167       167       168
       167       188       167       189       168       169       169       170
       169       171       169       172       172       173       172       174
       172       175       175       176       175       180       175       184
       176       177       176       178       176       179       180       181
       180       182       180       183       184       185       184       186
       184       187       190       191       191       192       193       194
       193       195       193       196       196       197       196       198
       196       199       199       200       199       201       199       202
       202       203       202       204       202       205       205       206
       205       207       205       208       208       209       208       210
       208       211       211       212       211       213       211       214
       214       215       214       216       216       217       216       218
       218       219       218       220       218       221       221       222
       221       223       221       224       224       225       224       226
       224       227       227       228       227       229       227       230
       230       231       230       232       230       233       233       234
       233       235       233       236       236       237       236       238
       236       239       239       240       239       241       239       242
       243       244       243       245       243       246       243       247
       247       248       247       249       247       250       250       251
       250       252       250       253       253       254       253       255
       253       256       256       257       256       258       256       259
       259       260       259       261       259       262       262       263
       262       264       262       265       265       266       265       267
       265       268       268       269       268       270       268       271
       271       272       271       273       271       274       274       275
       274       276       274       277       277       278       277       279
       277       280       280       281       280       282       280       283
       283       284       283       285       283       286       286       287
       286       288       289       290       289       291       291       292
       292       293       292       294       292       295       295       296
       295       297       295       324       297       298       297       299
       297       300       300       301       301       302       301       322
       301       323       302       303       303       304       303       305
       303       306       306       307       306       308       306       309
       309       310       309       314       309       318       310       311
       310       312       310       313       314       315       314       316
       314       317       318       319       318       320       318       321
       324       325       325       326       327       328       327       329
       327       330       330       331       330       332       330       333
       333       334       333       335       333       336       336       337
       336       338       336       339       339       340       339       341
       339       342       342       343       342       344       342       345
       345       346       345       347       345       348       348       349
       348       350       350       351       350       352       352       353
       352       354       352       355       355       356       355       357
       355       358       358       359       358       360       358       361
       361       362       361       363       361       364       364       365
       364       366       364       367       367       368       367       369
       367       370       370       371       370       372       370       373
       373       374       373       375       373       376       377       378
       377       379       377       380       377       381       381       382
       381       383       381       384       384       385       384       386
       384       387       387       388       387       389       387       390
       390       391       390       392       390       393       393       394
       393       395       393       396       396       397       396       398
       396       399       399       400       399       401       399       402
       402       403       402       404       402       405       405       406
       405       407       405       408       408       409       408       410
       408       411       411       412       411       413       411       414
       414       415       414       416       414       417       417       418
       417       419       417       420       420       421       420       422
       423       424       423       425       425       426       426       427
       426       428       426       429       429       430       429       431
       429       458       431       432       431       433       431       434
       434       435       435       436       435       456       435       457
       436       437       437       438       437       439       437       440
       440       441       440       442       440       443       443       444
       443       448       443       452       444       445       444       446
       444       447       448       449       448       450       448       451
       452       453       452       454       452       455       458       459
       459       460       461       462       461       463       461       464
       464       465       464       466       464       467       467       468
       467       469       467       470       470       471       470       472
       470       473       473       474       473       475       473       476
       476       477       476       478       476       479       479       480
       479       481       479       482       482       483       482       484
       484       485       484       486       486       487       486       488
       486       489       489       490       489       491       489       492
       492       493       492       494       492       495       495       496
       495       497       495       498       498       499       498       500
       498       501       501       502       501       503       501       504
       504       505       504       506       504       507       507       508
       507       509       507       510       511       512       511       513
       511       514       511       515       515       516       515       517
       515       518       518       519       518       520       518       521
       521       522       521       523       521       524       524       525
       524       526       524       527       527       528       527       529
       527       530       530       531       530       532       530       533
       533       534       533       535       533       536       536       537
       536       538       536       539       539       540       539       541
       539       542       542       543       542       544       542       545
       545       546       545       547       545       548       548       549
       548       550       548       551       551       552       551       553
       551       554       554       555       554       556       557       558
       557       559       559       560       560       561       560       562
       560       563       563       564       563       565       563       592
       565       566       565       567       565       568       568       569
       569       570       569       590       569       591       570       571
       571       572       571       573       571       574       574       575
       574       576       574       577       577       578       577       582
       577       586       578       579       578       580       578       581
       582       583       582       584       582       585       586       587
       586       588       586       589       592       593       593       594
       595       596       595       597       595       598       598       599
       598       600       598       601       601       602       601       603
       601       604       604       605       604       606       604       607
       607       608       607       609       607       610       610       611
       610       612       610       613       613       614       613       615
       613       616       616       617       616       618       618       619
       618       620       620       621       620       622       620       623
       623       624       623       625       623       626       626       627
       626       628       626       629       629       630       629       631
       629       632       632       633       632       634       632       635
       635       636       635       637       635       638       638       639
       638       640       638       641       641       642       641       643
       641       644       645       646       645       647       645       648
       645       649       649       650       649       651       649       652
       652       653       652       654       652       655       655       656
       655       657       655       658       658       659       658       660
       658       661       661       662       661       663       661       664
       664       665       664       666       664       667       667       668
       667       669       667       670       670       671       670       672
       670       673       673       674       673       675       673       676
       676       677       676       678       676       679       679       680
       679       681       679       682       682       683       682       684
       682       685       685       686       685       687       685       688
       688       689       688       690       691       692       691       693
       693       694       694       695       694       696       694       697
       697       698       697       699       697       726       699       700
       699       701       699       702       702       703       703       704
       703       724       703       725       704       705       705       706
       705       707       705       708       708       709       708       710
       708       711       711       712       711       716       711       720
       712       713       712       714       712       715       716       717
       716       718       716       719       720       721       720       722
       720       723       726       727       727       728       729       730
       729       731       729       732       732       733       732       734
       732       735       735       736       735       737       735       738
       738       739       738       740       738       741       741       742
       741       743       741       744       744       745       744       746
       744       747       747       748       747       749       747       750
       750       751       750       752       752       753       752       754
       754       755       754       756       754       757       757       758
       757       759       757       760       760       761       760       762
       760       763       763       764       763       765       763       766
       766       767       766       768       766       769       769       770
       769       771       769       772       772       773       772       774
       772       775       775       776       775       777       775       778
       779       780       779       781       779       782       779       783
       783       784       783       785       783       786       786       787
       786       788       786       789       789       790       789       791
       789       792       792       793       792       794       792       795
       795       796       795       797       795       798       798       799
       798       800       798       801       801       802       801       803
       801       804       804       805       804       806       804       807
       807       808       807       809       807       810       810       811
       810       812       810       813       813       814       813       815
       813       816       816       817       816       818       816       819
       819       820       819       821       819       822       822       823
       822       824       825       826       825       827       827       828
       828       829       828       830       828       831       831       832
       831       833       831       860       833       834       833       835
       833       836       836       837       837       838       837       858
       837       859       838       839       839       840       839       841
       839       842       842       843       842       844       842       845
       845       846       845       850       845       854       846       847
       846       848       846       849       850       851       850       852
       850       853       854       855       854       856       854       857
       860       861       861       862       863       864       863       865
       863       866       866       867       866       868       866       869
       869       870       869       871       869       872       872       873
       872       874       872       875       875       876       875       877
       875       878       878       879       878       880       878       881
       881       882       881       883       881       884       884       885
       884       886       886       887       886       888       888       889
       888       890       888       891       891       892       891       893
       891       894       894       895       894       896       894       897
       897       898       897       899       897       900       900       901
       900       902       900       903       903       904       903       905
       903       906       906       907       906       908       906       909
       909       910       909       911       909       912       913       914
       913       915       913       916       913       917       917       918
       917       919       917       920       920       921       920       922
       920       923       923       924       923       925       923       926
       926       927       926       928       926       929       929       930
       929       931       929       932       932       933       932       934
       932       935       935       936       935       937       935       938
       938       939       938       940       938       941       941       942
       941       943       941       944       944       945       944       946
       944       947       947       948       947       949       947       950
       950       951       950       952       950       953       953       954
       953       955       953       956       956       957       956       958
       959       960       959       961       961       962       962       963
       962       964       962       965       965       966       965       967
       965       994       967       968       967       969       967       970
       970       971       971       972       971       992       971       993
       972       973       973       974       973       975       973       976
       976       977       976       978       976       979       979       980
       979       984       979       988       980       981       980       982
       980       983       984       985       984       986       984       987
       988       989       988       990       988       991       994       995
       995       996       997       998       997       999       997      1000
      1000      1001      1000      1002      1000      1003      1003      1004
      1003      1005      1003      1006      1006      1007      1006      1008
      1006      1009      1009      1010      1009      1011      1009      1012
      1012      1013      1012      1014      1012      1015      1015      1016
      1015      1017      1015      1018      1018      1019      1018      1020
      1020      1021      1020      1022      1022      1023      1022      1024
      1022      1025      1025      1026      1025      1027      1025      1028
      1028      1029      1028      1030      1028      1031      1031      1032
      1031      1033      1031      1034      1034      1035      1034      1036
      1034      1037      1037      1038      1037      1039      1037      1040
      1040      1041      1040      1042      1040      1043      1043      1044
      1043      1045      1043      1046      1047      1048      1047      1049
      1047      1050      1047      1051      1051      1052      1051      1053
      1051      1054      1054      1055      1054      1056      1054      1057
      1057      1058      1057      1059      1057      1060      1060      1061
      1060      1062      1060      1063      1063      1064      1063      1065
      1063      1066      1066      1067      1066      1068      1066      1069
      1069      1070      1069      1071      1069      1072      1072      1073
      1072      1074      1072      1075      1075      1076      1075      1077
      1075      1078      1078      1079      1078      1080      1078      1081
      1081      1082      1081      1083      1081      1084      1084      1085
      1084      1086      1084      1087      1087      1088      1087      1089
      1087      1090      1090      1091      1090      1092      1093      1094
      1093      1095      1095      1096      1096      1097      1096      1098
      1096      1099      1099      1100      1099      1101      1099      1128
      1101      1102      1101      1103      1101      1104      1104      1105
      1105      1106      1105      1126      1105      1127      1106      1107
      1107      1108      1107      1109      1107      1110      1110      1111
      1110      1112      1110      1113      1113      1114      1113      1118
      1113      1122      1114      1115      1114      1116      1114      1117
      1118      1119      1118      1120      1118      1121      1122      1123
      1122      1124      1122      1125      1128      1129      1129      1130
      1131      1132      1131      1133      1131      1134      1134      1135
      1134      1136      1134      1137      1137      1138      1137      1139
      1137      1140      1140      1141      1140      1142      1140      1143
      1143      1144      1143      1145      1143      1146      1146      1147
      1146      1148      1146      1149      1149      1150      1149      1151
      1149      1152      1152      1153      1152      1154      1154      1155
      1154      1156      1156      1157      1156      1158      1156      1159
      1159      1160      1159      1161      1159      1162      1162      1163
      1162      1164      1162      1165      1165      1166      1165      1167
      1165      1168      1168      1169      1168      1170      1168      1171
      1171      1172      1171      1173      1171      1174      1174      1175
      1174      1176      1174      1177      1177      1178      1177      1179
      1177      1180      1181      1182      1181      1183      1181      1184
      1181      1185      1185      1186      1185      1187      1185      1188
      1188      1189      1188      1190      1188      1191      1191      1192
      1191      1193      1191      1194      1194      1195      1194      1196
      1194      1197      1197      1198      1197      1199      1197      1200
      1200      1201      1200      1202      1200      1203      1203      1204
      1203      1205      1203      1206      1206      1207      1206      1208
      1206      1209      1209      1210      1209      1211      1209      1212
      1212      1213      1212      1214      1212      1215      1215      1216
      1215      1217      1215      1218      1218      1219      1218      1220
      1218      1221      1221      1222      1221      1223      1221      1224
      1224      1225      1224      1226      1227      1228      1227      1229
      1229      1230      1230      1231      1230      1232      1230      1233
      1233      1234      1233      1235      1233      1262      1235      1236
      1235      1237      1235      1238      1238      1239      1239      1240
      1239      1260      1239      1261      1240      1241      1241      1242
      1241      1243      1241      1244      1244      1245      1244      1246
      1244      1247      1247      1248      1247      1252      1247      1256
      1248      1249      1248      1250      1248      1251      1252      1253
      1252      1254      1252      1255      1256      1257      1256      1258
      1256      1259      1262      1263      1263      1264      1265      1266
      1265      1267      1265      1268      1268      1269      1268      1270
      1268      1271      1271      1272      1271      1273      1271      1274
      1274      1275      1274      1276      1274      1277      1277      1278
      1277      1279      1277      1280      1280      1281      1280      1282
      1280      1283      1283      1284      1283      1285      1283      1286
      1286      1287      1286      1288      1288      1289      1288      1290
      1290      1291      1290      1292      1290      1293      1293      1294
      1293      1295      1293      1296      1296      1297      1296      1298
      1296      1299      1299      1300      1299      1301      1299      1302
      1302      1303      1302      1304      1302      1305      1305      1306
      1305      1307      1305      1308      1308      1309      1308      1310
      1308      1311      1311      1312      1311      1313      1311      1314
      1315      1316      1315      1317      1315      1318      1315      1319
      1319      1320      1319      1321      1319      1322      1322      1323
      1322      1324      1322      1325      1325      1326      1325      1327
      1325      1328      1328      1329      1328      1330      1328      1331
      1331      1332      1331      1333      1331      1334      1334      1335
      1334      1336      1334      1337      1337      1338      1337      1339
      1337      1340      1340      1341      1340      1342      1340      1343
      1343      1344      1343      1345      1343      1346      1346      1347
      1346      1348      1346      1349      1349      1350      1349      1351
      1349      1352      1352      1353      1352      1354      1352      1355
      1355      1356      1355      1357      1355      1358      1358      1359
      1358      1360      1361      1362      1361      1363      1363      1364
      1364      1365      1364      1366      1364      1367      1367      1368
      1367      1369      1367      1396      1369      1370      1369      1371
      1369      1372      1372      1373      1373      1374      1373      1394
      1373      1395      1374      1375      1375      1376      1375      1377
      1375      1378      1378      1379      1378      1380      1378      1381
      1381      1382      1381      1386      1381      1390      1382      1383
      1382      1384      1382      1385      1386      1387      1386      1388
      1386      1389      1390      1391      1390      1392      1390      1393
      1396      1397      1397      1398      1399      1400      1399      1401
      1399      1402      1402      1403      1402      1404      1402      1405
      1405      1406      1405      1407      1405      1408      1408      1409
      1408      1410      1408      1411      1411      1412      1411      1413
      1411      1414      1414      1415      1414      1416      1414      1417
      1417      1418      1417      1419      1417      1420      1420      1421
      1420      1422      1422      1423      1422      1424      1424      1425
      1424      1426      1424      1427      1427      1428      1427      1429
      1427      1430      1430      1431      1430      1432      1430      1433
      1433      1434      1433      1435      1433      1436      1436      1437
      1436      1438      1436      1439      1439      1440      1439      1441
      1439      1442      1442      1443      1442      1444      1442      1445
      1445      1446      1445      1447      1445      1448      1449      1450
      1449      1451      1449      1452      1449      1453      1453      1454
      1453      1455      1453      1456      1456      1457      1456      1458
      1456      1459      1459      1460      1459      1461      1459      1462
      1462      1463      1462      1464      1462      1465      1465      1466
      1465      1467      1465      1468      1468      1469      1468      1470
      1468      1471      1471      1472      1471      1473      1471      1474
      1474      1475      1474      1476      1474      1477      1477      1478
      1477      1479      1477      1480      1480      1481      1480      1482
      1480      1483      1483      1484      1483      1485      1483      1486
      1486      1487      1486      1488      1486      1489      1489      1490
      1489      1491      1489      1492      1492      1493      1492      1494
      1495      1496      1495      1497      1497      1498      1498      1499
      1498      1500      1498      1501      1501      1502      1501      1503
      1501      1530      1503      1504      1503      1505      1503      1506
      1506      1507      1507      1508      1507      1528      1507      1529
      1508      1509      1509      1510      1509      1511      1509      1512
      1512      1513      1512      1514      1512      1515      1515      1516
      1515      1520      1515      1524      1516      1517      1516      1518
      1516      1519      1520      1521      1520      1522      1520      1523
      1524      1525      1524      1526      1524      1527      1530      1531
      1531      1532      1533      1534      1533      1535      1533      1536
      1536      1537      1536      1538      1536      1539      1539      1540
      1539      1541      1539      1542      1542      1543      1542      1544
      1542      1545      1545      1546      1545      1547      1545      1548
      1548      1549      1548      1550      1548      1551      1551      1552
      1551      1553      1551      1554      1554      1555      1554      1556
      1556      1557      1556      1558      1558      1559      1558      1560
      1558      1561      1561      1562      1561      1563      1561      1564
      1564      1565      1564      1566      1564      1567      1567      1568
      1567      1569      1567      1570      1570      1571      1570      1572
      1570      1573      1573      1574      1573      1575      1573      1576
      1576      1577      1576      1578      1576      1579      1579      1580
      1579      1581      1579      1582      1583      1584      1583      1585
      1583      1586      1583      1587      1587      1588      1587      1589
      1587      1590      1590      1591      1590      1592      1590      1593
      1593      1594      1593      1595      1593      1596      1596      1597
      1596      1598      1596      1599      1599      1600      1599      1601
      1599      1602      1602      1603      1602      1604      1602      1605
      1605      1606      1605      1607      1605      1608      1608      1609
      1608      1610      1608      1611      1611      1612      1611      1613
      1611      1614      1614      1615      1614      1616      1614      1617
      1617      1618      1617      1619      1617      1620      1620      1621
      1620      1622      1620      1623      1623      1624      1623      1625
      1623      1626      1626      1627      1626      1628      1629      1630
      1629      1631      1631      1632      1632      1633      1632      1634
      1632      1635      1635      1636      1635      1637      1635      1664
      1637      1638      1637      1639      1637      1640      1640      1641
      1641      1642      1641      1662      1641      1663      1642      1643
      1643      1644      1643      1645      1643      1646      1646      1647
      1646      1648      1646      1649      1649      1650      1649      1654
      1649      1658      1650      1651      1650      1652      1650      1653
      1654      1655      1654      1656      1654      1657      1658      1659
      1658      1660      1658      1661      1664      1665      1665      1666
      1667      1668      1667      1669      1667      1670      1670      1671
      1670      1672      1670      1673      1673      1674      1673      1675
      1673      1676      1676      1677      1676      1678      1676      1679
      1679      1680      1679      1681      1679      1682      1682      1683
      1682      1684      1682      1685      1685      1686      1685      1687
      1685      1688      1688      1689      1688      1690      1690      1691
      1690      1692      1692      1693      1692      1694      1692      1695
      1695      1696      1695      1697      1695      1698      1698      1699
      1698      1700      1698      1701      1701      1702      1701      1703
      1701      1704      1704      1705      1704      1706      1704      1707
      1707      1708      1707      1709      1707      1710      1710      1711
      1710      1712      1710      1713      1713      1714      1713      1715
      1713      1716      1717      1718      1717      1719      1717      1720
      1717      1721      1721      1722      1721      1723      1721      1724
      1724      1725      1724      1726      1724      1727      1727      1728
      1727      1729      1727      1730      1730      1731      1730      1732
      1730      1733      1733      1734      1733      1735      1733      1736
      1736      1737      1736      1738      1736      1739      1739      1740
      1739      1741      1739      1742      1742      1743      1742      1744
      1742      1745      1745      1746      1745      1747      1745      1748
      1748      1749      1748      1750      1748      1751      1751      1752
      1751      1753      1751      1754      1754      1755      1754      1756
      1754      1757      1757      1758      1757      1759      1757      1760
      1760      1761      1760      1762      1763      1764      1763      1765
      1765      1766      1766      1767      1766      1768      1766      1769
      1769      1770      1769      1771      1769      1798      1771      1772
      1771      1773      1771      1774      1774      1775      1775      1776
      1775      1796      1775      1797      1776      1777      1777      1778
      1777      1779      1777      1780      1780      1781      1780      1782
      1780      1783      1783      1784      1783      1788      1783      1792
      1784      1785      1784      1786      1784      1787      1788      1789
      1788      1790      1788      1791      1792      1793      1792      1794
      1792      1795      1798      1799      1799      1800      1801      1802
      1801      1803      1801      1804      1804      1805      1804      1806
      1804      1807      1807      1808      1807      1809      1807      1810
      1810      1811      1810      1812      1810      1813      1813      1814
      1813      1815      1813      1816      1816      1817      1816      1818
      1816      1819      1819      1820      1819      1821      1819      1822
      1822      1823      1822      1824      1824      1825      1824      1826
      1826      1827      1826      1828      1826      1829      1829      1830
      1829      1831      1829      1832      1832      1833      1832      1834
      1832      1835      1835      1836      1835      1837      1835      1838
      1838      1839      1838      1840      1838      1841      1841      1842
      1841      1843      1841      1844      1844      1845      1844      1846
      1844      1847      1847      1848      1847      1849      1847      1850
      1851      1852      1851      1853      1851      1854      1851      1855
      1855      1856      1855      1857      1855      1858      1858      1859
      1858      1860      1858      1861      1861      1862      1861      1863
      1861      1864      1864      1865      1864      1866      1864      1867
      1867      1868      1867      1869      1867      1870      1870      1871
      1870      1872      1870      1873      1873      1874      1873      1875
      1873      1876      1876      1877      1876      1878      1876      1879
      1879      1880      1879      1881      1879      1882      1882      1883
      1882      1884      1882      1885      1885      1886      1885      1887
      1885      1888      1888      1889      1888      1890      1888      1891
      1891      1892      1891      1893      1891      1894      1894      1895
      1894      1896      1897      1898      1897      1899      1899      1900
      1900      1901      1900      1902      1900      1903      1903      1904
      1903      1905      1903      1932      1905      1906      1905      1907
      1905      1908      1908      1909      1909      1910      1909      1930
      1909      1931      1910      1911      1911      1912      1911      1913
      1911      1914      1914      1915      1914      1916      1914      1917
      1917      1918      1917      1922      1917      1926      1918      1919
      1918      1920      1918      1921      1922      1923      1922      1924
      1922      1925      1926      1927      1926      1928      1926      1929
      1932      1933      1933      1934      1935      1936      1935      1937
      1935      1938      1938      1939      1938      1940      1938      1941
      1941      1942      1941      1943      1941      1944      1944      1945
      1944      1946      1944      1947      1947      1948      1947      1949
      1947      1950      1950      1951      1950      1952      1950      1953
      1953      1954      1953      1955      1953      1956      1956      1957
      1956      1958      1958      1959      1958      1960      1960      1961
      1960      1962      1960      1963      1963      1964      1963      1965
      1963      1966      1966      1967      1966      1968      1966      1969
      1969      1970      1969      1971      1969      1972      1972      1973
      1972      1974      1972      1975      1975      1976      1975      1977
      1975      1978      1978      1979      1978      1980      1978      1981
      1981      1982      1981      1983      1981      1984      1985      1986
      1985      1987      1985      1988      1985      1989      1989      1990
      1989      1991      1989      1992      1992      1993      1992      1994
      1992      1995      1995      1996      1995      1997      1995      1998
      1998      1999      1998      2000      1998      2001      2001      2002
      2001      2003      2001      2004      2004      2005      2004      2006
      2004      2007      2007      2008      2007      2009      2007      2010
      2010      2011      2010      2012      2010      2013      2013      2014
      2013      2015      2013      2016      2016      2017      2016      2018
      2016      2019      2019      2020      2019      2021      2019      2022
      2022      2023      2022      2024      2022      2025      2025      2026
      2025      2027      2025      2028      2028      2029      2028      2030
      2031      2032      2031      2033      2033      2034      2034      2035
      2034      2036      2034      2037      2037      2038      2037      2039
      2037      2066      2039      2040      2039      2041      2039      2042
      2042      2043      2043      2044      2043      2064      2043      2065
      2044      2045      2045      2046      2045      2047      2045      2048
      2048      2049      2048      2050      2048      2051      2051      2052
      2051      2056      2051      2060      2052      2053      2052      2054
      2052      2055      2056      2057      2056      2058      2056      2059
      2060      2061      2060      2062      2060      2063      2066      2067
      2067      2068      2069      2070      2069      2071      2069      2072
      2072      2073      2072      2074      2072      2075      2075      2076
      2075      2077      2075      2078      2078      2079      2078      2080
      2078      2081      2081      2082      2081      2083      2081      2084
      2084      2085      2084      2086      2084      2087      2087      2088
      2087      2089      2087      2090      2090      2091      2090      2092
      2092      2093      2092      2094      2094      2095      2094      2096
      2094      2097      2097      2098      2097      2099      2097      2100
      2100      2101      2100      2102      2100      2103      2103      2104
      2103      2105      2103      2106      2106      2107      2106      2108
      2106      2109      2109      2110      2109      2111      2109      2112
      2112      2113      2112      2114      2112      2115      2115      2116
      2115      2117      2115      2118      2119      2120      2119      2121
      2119      2122      2119      2123      2123      2124      2123      2125
      2123      2126      2126      2127      2126      2128      2126      2129
      2129      2130      2129      2131      2129      2132      2132      2133
      2132      2134      2132      2135      2135      2136      2135      2137
      2135      2138      2138      2139      2138      2140      2138      2141
      2141      2142      2141      2143      2141      2144      2144      2145
      2144      2146      2144      2147      2147      2148      2147      2149
      2147      2150      2150      2151      2150      2152      2150      2153
      2153      2154      2153      2155      2153      2156      2156      2157
      2156      2158      2156      2159      2159      2160      2159      2161
      2159      2162      2162      2163      2162      2164      2165      2166
      2165      2167      2167      2168      2168      2169      2168      2170
      2168      2171      2171      2172      2171      2173      2171      2200
      2173      2174      2173      2175      2173      2176      2176      2177
      2177      2178      2177      2198      2177      2199      2178      2179
      2179      2180      2179      2181      2179      2182      2182      2183
      2182      2184      2182      2185      2185      2186      2185      2190
      2185      2194      2186      2187      2186      2188      2186      2189
      2190      2191      2190      2192      2190      2193      2194      2195
      2194      2196      2194      2197      2200      2201      2201      2202
      2203      2204      2203      2205      2203      2206      2206      2207
      2206      2208      2206      2209      2209      2210      2209      2211
      2209      2212      2212      2213      2212      2214      2212      2215
      2215      2216      2215      2217      2215      2218      2218      2219
      2218      2220      2218      2221      2221      2222      2221      2223
      2221      2224      2224      2225      2224      2226      2226      2227
      2226      2228      2228      2229      2228      2230      2228      2231
      2231      2232      2231      2233      2231      2234      2234      2235
      2234      2236      2234      2237      2237      2238      2237      2239
      2237      2240      2240      2241      2240      2242      2240      2243
      2243      2244      2243      2245      2243      2246      2246      2247
      2246      2248      2246      2249      2249      2250      2249      2251
      2249      2252      2253      2254      2253      2255      2253      2256
      2253      2257      2257      2258      2257      2259      2257      2260
      2260      2261      2260      2262      2260      2263      2263      2264
      2263      2265      2263      2266      2266      2267      2266      2268
      2266      2269      2269      2270      2269      2271      2269      2272
      2272      2273      2272      2274      2272      2275      2275      2276
      2275      2277      2275      2278      2278      2279      2278      2280
      2278      2281      2281      2282      2281      2283      2281      2284
      2284      2285      2284      2286      2284      2287      2287      2288
      2287      2289      2287      2290      2290      2291      2290      2292
      2290      2293      2293      2294      2293      2295      2293      2296
      2296      2297      2296      2298      2299      2300      2299      2301
      2301      2302      2302      2303      2302      2304      2302      2305
      2305      2306      2305      2307      2305      2334      2307      2308
      2307      2309      2307      2310      2310      2311      2311      2312
      2311      2332      2311      2333      2312      2313      2313      2314
      2313      2315      2313      2316      2316      2317      2316      2318
      2316      2319      2319      2320      2319      2324      2319      2328
      2320      2321      2320      2322      2320      2323      2324      2325
      2324      2326      2324      2327      2328      2329      2328      2330
      2328      2331      2334      2335      2335      2336      2337      2338
      2337      2339      2337      2340      2340      2341      2340      2342
      2340      2343      2343      2344      2343      2345      2343      2346
      2346      2347      2346      2348      2346      2349      2349      2350
      2349      2351      2349      2352      2352      2353      2352      2354
      2352      2355      2355      2356      2355      2357      2355      2358
      2358      2359      2358      2360      2360      2361      2360      2362
      2362      2363      2362      2364      2362      2365      2365      2366
      2365      2367      2365      2368      2368      2369      2368      2370
      2368      2371      2371      2372      2371      2373      2371      2374
      2374      2375      2374      2376      2374      2377      2377      2378
      2377      2379      2377      2380      2380      2381      2380      2382
      2380      2383      2383      2384      2383      2385      2383      2386
      2387      2388      2387      2389      2387      2390      2387      2391
      2391      2392      2391      2393      2391      2394      2394      2395
      2394      2396      2394      2397      2397      2398      2397      2399
      2397      2400      2400      2401      2400      2402      2400      2403
      2403      2404      2403      2405      2403      2406      2406      2407
      2406      2408      2406      2409      2409      2410      2409      2411
      2409      2412      2412      2413      2412      2414      2412      2415
      2415      2416      2415      2417      2415      2418      2418      2419
      2418      2420      2418      2421      2421      2422      2421      2423
      2421      2424      2424      2425      2424      2426      2424      2427
      2427      2428      2427      2429      2427      2430      2430      2431
      2430      2432      2433      2434      2433      2435      2435      2436
      2436      2437      2436      2438      2436      2439      2439      2440
      2439      2441      2439      2468      2441      2442      2441      2443
      2441      2444      2444      2445      2445      2446      2445      2466
      2445      2467      2446      2447      2447      2448      2447      2449
      2447      2450      2450      2451      2450      2452      2450      2453
      2453      2454      2453      2458      2453      2462      2454      2455
      2454      2456      2454      2457      2458      2459      2458      2460
      2458      2461      2462      2463      2462      2464      2462      2465
      2468      2469      2469      2470      2471      2472      2471      2473
      2471      2474      2474      2475      2474      2476      2474      2477
      2477      2478      2477      2479      2477      2480      2480      2481
      2480      2482      2480      2483      2483      2484      2483      2485
      2483      2486      2486      2487      2486      2488      2486      2489
      2489      2490      2489      2491      2489      2492      2492      2493
      2492      2494      2494      2495      2494      2496      2496      2497
      2496      2498      2496      2499      2499      2500      2499      2501
      2499      2502      2502      2503      2502      2504      2502      2505
      2505      2506      2505      2507      2505      2508      2508      2509
      2508      2510      2508      2511      2511      2512      2511      2513
      2511      2514      2514      2515      2514      2516      2514      2517
      2517      2518      2517      2519      2517      2520      2521      2522
      2521      2523      2521      2524      2521      2525      2525      2526
      2525      2527      2525      2528      2528      2529      2528      2530
      2528      2531      2531      2532      2531      2533      2531      2534
      2534      2535      2534      2536      2534      2537      2537      2538
      2537      2539      2537      2540      2540      2541      2540      2542
      2540      2543      2543      2544      2543      2545      2543      2546
      2546      2547      2546      2548      2546      2549      2549      2550
      2549      2551      2549      2552      2552      2553      2552      2554
      2552      2555      2555      2556      2555      2557      2555      2558
      2558      2559      2558      2560      2558      2561      2561      2562
      2561      2563      2561      2564      2564      2565      2564      2566
      2567      2568      2567      2569      2569      2570      2570      2571
      2570      2572      2570      2573      2573      2574      2573      2575
      2573      2602      2575      2576      2575      2577      2575      2578
      2578      2579      2579      2580      2579      2600      2579      2601
      2580      2581      2581      2582      2581      2583      2581      2584
      2584      2585      2584      2586      2584      2587      2587      2588
      2587      2592      2587      2596      2588      2589      2588      2590
      2588      2591      2592      2593      2592      2594      2592      2595
      2596      2597      2596      2598      2596      2599      2602      2603
      2603      2604      2605      2606      2605      2607      2605      2608
      2608      2609      2608      2610      2608      2611      2611      2612
      2611      2613      2611      2614      2614      2615      2614      2616
      2614      2617      2617      2618      2617      2619      2617      2620
      2620      2621      2620      2622      2620      2623      2623      2624
      2623      2625      2623      2626      2626      2627      2626      2628
      2628      2629      2628      2630      2630      2631      2630      2632
      2630      2633      2633      2634      2633      2635      2633      2636
      2636      2637      2636      2638      2636      2639      2639      2640
      2639      2641      2639      2642      2642      2643      2642      2644
      2642      2645      2645      2646      2645      2647      2645      2648
      2648      2649      2648      2650      2648      2651      2651      2652
      2651      2653      2651      2654      2655      2656      2655      2657
      2655      2658      2655      2659      2659      2660      2659      2661
      2659      2662      2662      2663      2662      2664      2662      2665
      2665      2666      2665      2667      2665      2668      2668      2669
      2668      2670      2668      2671      2671      2672      2671      2673
      2671      2674      2674      2675      2674      2676      2674      2677
      2677      2678      2677      2679      2677      2680      2680      2681
      2680      2682      2680      2683      2683      2684      2683      2685
      2683      2686      2686      2687      2686      2688      2686      2689
      2689      2690      2689      2691      2689      2692      2692      2693
      2692      2694      2692      2695      2695      2696      2695      2697
      2695      2698      2698      2699      2698      2700      2701      2702
      2701      2703      2703      2704      2704      2705      2704      2706
      2704      2707      2707      2708      2707      2709      2707      2736
      2709      2710      2709      2711      2709      2712      2712      2713
      2713      2714      2713      2734      2713      2735      2714      2715
      2715      2716      2715      2717      2715      2718      2718      2719
      2718      2720      2718      2721      2721      2722      2721      2726
      2721      2730      2722      2723      2722      2724      2722      2725
      2726      2727      2726      2728      2726      2729      2730      2731
      2730      2732      2730      2733      2736      2737      2737      2738
      2739      2740      2739      2741      2739      2742      2742      2743
      2742      2744      2742      2745      2745      2746      2745      2747
      2745      2748      2748      2749      2748      2750      2748      2751
      2751      2752      2751      2753      2751      2754      2754      2755
      2754      2756      2754      2757      2757      2758      2757      2759
      2757      2760      2760      2761      2760      2762      2762      2763
      2762      2764      2764      2765      2764      2766      2764      2767
      2767      2768      2767      2769      2767      2770      2770      2771
      2770      2772      2770      2773      2773      2774      2773      2775
      2773      2776      2776      2777      2776      2778      2776      2779
      2779      2780      2779      2781      2779      2782      2782      2783
      2782      2784      2782      2785      2785      2786      2785      2787
      2785      2788      2789      2790      2789      2791      2789      2792
      2789      2793      2793      2794      2793      2795      2793      2796
      2796      2797      2796      2798      2796      2799      2799      2800
      2799      2801      2799      2802      2802      2803      2802      2804
      2802      2805      2805      2806      2805      2807      2805      2808
      2808      2809      2808      2810      2808      2811      2811      2812
      2811      2813      2811      2814      2814      2815      2814      2816
      2814      2817      2817      2818      2817      2819      2817      2820
      2820      2821      2820      2822      2820      2823      2823      2824
      2823      2825      2823      2826      2826      2827      2826      2828
      2826      2829      2829      2830      2829      2831      2829      2832
      2832      2833      2832      2834      2835      2836      2835      2837
      2837      2838      2838      2839      2838      2840      2838      2841
      2841      2842      2841      2843      2841      2870      2843      2844
      2843      2845      2843      2846      2846      2847      2847      2848
      2847      2868      2847      2869      2848      2849      2849      2850
      2849      2851      2849      2852      2852      2853      2852      2854
      2852      2855      2855      2856      2855      2860      2855      2864
      2856      2857      2856      2858      2856      2859      2860      2861
      2860      2862      2860      2863      2864      2865      2864      2866
      2864      2867      2870      2871      2871      2872      2873      2874
      2873      2875      2873      2876      2876      2877      2876      2878
      2876      2879      2879      2880      2879      2881      2879      2882
      2882      2883      2882      2884      2882      2885      2885      2886
      2885      2887      2885      2888      2888      2889      2888      2890
      2888      2891      2891      2892      2891      2893      2891      2894
      2894      2895      2894      2896      2896      2897      2896      2898
      2898      2899      2898      2900      2898      2901      2901      2902
      2901      2903      2901      2904      2904      2905      2904      2906
      2904      2907      2907      2908      2907      2909      2907      2910
      2910      2911      2910      2912      2910      2913      2913      2914
      2913      2915      2913      2916      2916      2917      2916      2918
      2916      2919      2919      2920      2919      2921      2919      2922
      2923      2924      2923      2925      2923      2926      2923      2927
      2927      2928      2927      2929      2927      2930      2930      2931
      2930      2932      2930      2933      2933      2934      2933      2935
      2933      2936      2936      2937      2936      2938      2936      2939
      2939      2940      2939      2941      2939      2942      2942      2943
      2942      2944      2942      2945      2945      2946      2945      2947
      2945      2948      2948      2949      2948      2950      2948      2951
      2951      2952      2951      2953      2951      2954      2954      2955
      2954      2956      2954      2957      2957      2958      2957      2959
      2957      2960      2960      2961      2960      2962      2960      2963
      2963      2964      2963      2965      2963      2966      2966      2967
      2966      2968      2969      2970      2969      2971      2971      2972
      2972      2973      2972      2974      2972      2975      2975      2976
      2975      2977      2975      3004      2977      2978      2977      2979
      2977      2980      2980      2981      2981      2982      2981      3002
      2981      3003      2982      2983      2983      2984      2983      2985
      2983      2986      2986      2987      2986      2988      2986      2989
      2989      2990      2989      2994      2989      2998      2990      2991
      2990      2992      2990      2993      2994      2995      2994      2996
      2994      2997      2998      2999      2998      3000      2998      3001
      3004      3005      3005      3006      3007      3008      3007      3009
      3007      3010      3010      3011      3010      3012      3010      3013
      3013      3014      3013      3015      3013      3016      3016      3017
      3016      3018      3016      3019      3019      3020      3019      3021
      3019      3022      3022      3023      3022      3024      3022      3025
      3025      3026      3025      3027      3025      3028      3028      3029
      3028      3030      3030      3031      3030      3032      3032      3033
      3032      3034      3032      3035      3035      3036      3035      3037
      3035      3038      3038      3039      3038      3040      3038      3041
      3041      3042      3041      3043      3041      3044      3044      3045
      3044      3046      3044      3047      3047      3048      3047      3049
      3047      3050      3050      3051      3050      3052      3050      3053
      3053      3054      3053      3055      3053      3056      3057      3058
      3057      3059      3057      3060      3057      3061      3061      3062
      3061      3063      3061      3064      3064      3065      3064      3066
      3064      3067      3067      3068      3067      3069      3067      3070
      3070      3071      3070      3072      3070      3073      3073      3074
      3073      3075      3073      3076      3076      3077      3076      3078
      3076      3079      3079      3080      3079      3081      3079      3082
      3082      3083      3082      3084      3082      3085      3085      3086
      3085      3087      3085      3088      3088      3089      3088      3090
      3088      3091      3091      3092      3091      3093      3091      3094
      3094      3095      3094      3096      3094      3097      3097      3098
      3097      3099      3097      3100      3100      3101      3100      3102
      3103      3104      3103      3105      3105      3106      3106      3107
      3106      3108      3106      3109      3109      3110      3109      3111
      3109      3138      3111      3112      3111      3113      3111      3114
      3114      3115      3115      3116      3115      3136      3115      3137
      3116      3117      3117      3118      3117      3119      3117      3120
      3120      3121      3120      3122      3120      3123      3123      3124
      3123      3128      3123      3132      3124      3125      3124      3126
      3124      3127      3128      3129      3128      3130      3128      3131
      3132      3133      3132      3134      3132      3135      3138      3139
      3139      3140      3141      3142      3141      3143      3141      3144
      3144      3145      3144      3146      3144      3147      3147      3148
      3147      3149      3147      3150      3150      3151      3150      3152
      3150      3153      3153      3154      3153      3155      3153      3156
      3156      3157      3156      3158      3156      3159      3159      3160
      3159      3161      3159      3162      3162      3163      3162      3164
      3164      3165      3164      3166      3166      3167      3166      3168
      3166      3169      3169      3170      3169      3171      3169      3172
      3172      3173      3172      3174      3172      3175      3175      3176
      3175      3177      3175      3178      3178      3179      3178      3180
      3178      3181      3181      3182      3181      3183      3181      3184
      3184      3185      3184      3186      3184      3187      3187      3188
      3187      3189      3187      3190      3191      3192      3191      3193
      3191      3194      3191      3195      3195      3196      3195      3197
      3195      3198      3198      3199      3198      3200      3198      3201
      3201      3202      3201      3203      3201      3204      3204      3205
      3204      3206      3204      3207      3207      3208      3207      3209
      3207      3210      3210      3211      3210      3212      3210      3213
      3213      3214      3213      3215      3213      3216      3216      3217
      3216      3218      3216      3219      3219      3220      3219      3221
      3219      3222      3222      3223      3222      3224      3222      3225
      3225      3226      3225      3227      3225      3228      3228      3229
      3228      3230      3228      3231      3231      3232      3231      3233
      3231      3234      3234      3235      3234      3236      3237      3238
      3237      3239      3239      3240      3240      3241      3240      3242
      3240      3243      3243      3244      3243      3245      3243      3272
      3245      3246      3245      3247      3245      3248      3248      3249
      3249      3250      3249      3270      3249      3271      3250      3251
      3251      3252      3251      3253      3251      3254      3254      3255
      3254      3256      3254      3257      3257      3258      3257      3262
      3257      3266      3258      3259      3258      3260      3258      3261
      3262      3263      3262      3264      3262      3265      3266      3267
      3266      3268      3266      3269      3272      3273      3273      3274
      3275      3276      3275      3277      3275      3278      3278      3279
      3278      3280      3278      3281      3281      3282      3281      3283
      3281      3284      3284      3285      3284      3286      3284      3287
      3287      3288      3287      3289      3287      3290      3290      3291
      3290      3292      3290      3293      3293      3294      3293      3295
      3293      3296      3296      3297      3296      3298      3298      3299
      3298      3300      3300      3301      3300      3302      3300      3303
      3303      3304      3303      3305      3303      3306      3306      3307
      3306      3308      3306      3309      3309      3310      3309      3311
      3309      3312      3312      3313      3312      3314      3312      3315
      3315      3316      3315      3317      3315      3318      3318      3319
      3318      3320      3318      3321      3321      3322      3321      3323
      3321      3324      3325      3326      3325      3327      3325      3328
      3325      3329      3329      3330      3329      3331      3329      3332
      3332      3333      3332      3334      3332      3335      3335      3336
      3335      3337      3335      3338      3338      3339      3338      3340
      3338      3341      3341      3342      3341      3343      3341      3344
      3344      3345      3344      3346      3344      3347      3347      3348
      3347      3349      3347      3350      3350      3351      3350      3352
      3350      3353      3353      3354      3353      3355      3353      3356
      3356      3357      3356      3358      3356      3359      3359      3360
      3359      3361      3359      3362      3362      3363      3362      3364
      3362      3365      3365      3366      3365      3367      3365      3368
      3368      3369      3368      3370      3371      3372      3371      3373
      3373      3374      3374      3375      3374      3376      3374      3377
      3377      3378      3377      3379      3377      3406      3379      3380
      3379      3381      3379      3382      3382      3383      3383      3384
      3383      3404      3383      3405      3384      3385      3385      3386
      3385      3387      3385      3388      3388      3389      3388      3390
      3388      3391      3391      3392      3391      3396      3391      3400
      3392      3393      3392      3394      3392      3395      3396      3397
      3396      3398      3396      3399      3400      3401      3400      3402
      3400      3403      3406      3407      3407      3408      3409      3410
      3409      3411      3409      3412      3412      3413      3412      3414
      3412      3415      3415      3416      3415      3417      3415      3418
      3418      3419      3418      3420      3418      3421      3421      3422
      3421      3423      3421      3424      3424      3425      3424      3426
      3424      3427      3427      3428      3427      3429      3427      3430
      3430      3431      3430      3432      3432      3433      3432      3434
      3434      3435      3434      3436      3434      3437      3437      3438
      3437      3439      3437      3440      3440      3441      3440      3442
      3440      3443      3443      3444      3443      3445      3443      3446
      3446      3447      3446      3448      3446      3449      3449      3450
      3449      3451      3449      3452      3452      3453      3452      3454
      3452      3455      3455      3456      3455      3457      3455      3458
      3459      3460      3459      3461      3459      3462      3459      3463
      3463      3464      3463      3465      3463      3466      3466      3467
      3466      3468      3466      3469      3469      3470      3469      3471
      3469      3472      3472      3473      3472      3474      3472      3475
      3475      3476      3475      3477      3475      3478      3478      3479
      3478      3480      3478      3481      3481      3482      3481      3483
      3481      3484      3484      3485      3484      3486      3484      3487
      3487      3488      3487      3489      3487      3490      3490      3491
      3490      3492      3490      3493      3493      3494      3493      3495
      3493      3496      3496      3497      3496      3498      3496      3499
      3499      3500      3499      3501      3499      3502      3502      3503
      3502      3504      3505      3506      3505      3507      3507      3508
      3508      3509      3508      3510      3508      3511      3511      3512
      3511      3513      3511      3540      3513      3514      3513      3515
      3513      3516      3516      3517      3517      3518      3517      3538
      3517      3539      3518      3519      3519      3520      3519      3521
      3519      3522      3522      3523      3522      3524      3522      3525
      3525      3526      3525      3530      3525      3534      3526      3527
      3526      3528      3526      3529      3530      3531      3530      3532
      3530      3533      3534      3535      3534      3536      3534      3537
      3540      3541      3541      3542      3543      3544      3543      3545
      3543      3546      3546      3547      3546      3548      3546      3549
      3549      3550      3549      3551      3549      3552      3552      3553
      3552      3554      3552      3555      3555      3556      3555      3557
      3555      3558      3558      3559      3558      3560      3558      3561
      3561      3562      3561      3563      3561      3564      3564      3565
      3564      3566      3566      3567      3566      3568      3568      3569
      3568      3570      3568      3571      3571      3572      3571      3573
      3571      3574      3574      3575      3574      3576      3574      3577
      3577      3578      3577      3579      3577      3580      3580      3581
      3580      3582      3580      3583      3583      3584      3583      3585
      3583      3586      3586      3587      3586      3588      3586      3589
      3589      3590      3589      3591      3589      3592      3593      3594
      3593      3595      3593      3596      3593      3597      3597      3598
      3597      3599      3597      3600      3600      3601      3600      3602
      3600      3603      3603      3604      3603      3605      3603      3606
      3606      3607      3606      3608      3606      3609      3609      3610
      3609      3611      3609      3612      3612      3613      3612      3614
      3612      3615      3615      3616      3615      3617      3615      3618
      3618      3619      3618      3620      3618      3621      3621      3622
      3621      3623      3621      3624      3624      3625      3624      3626
      3624      3627      3627      3628      3627      3629      3627      3630
      3630      3631      3630      3632      3630      3633      3633      3634
      3633      3635      3633      3636      3636      3637      3636      3638
      3639      3640      3639      3641      3641      3642      3642      3643
      3642      3644      3642      3645      3645      3646      3645      3647
      3645      3674      3647      3648      3647      3649      3647      3650
      3650      3651      3651      3652      3651      3672      3651      3673
      3652      3653      3653      3654      3653      3655      3653      3656
      3656      3657      3656      3658      3656      3659      3659      3660
      3659      3664      3659      3668      3660      3661      3660      3662
      3660      3663      3664      3665      3664      3666      3664      3667
      3668      3669      3668      3670      3668      3671      3674      3675
      3675      3676      3677      3678      3677      3679      3677      3680
      3680      3681      3680      3682      3680      3683      3683      3684
      3683      3685      3683      3686      3686      3687      3686      3688
      3686      3689      3689      3690      3689      3691      3689      3692
      3692      3693      3692      3694      3692      3695      3695      3696
      3695      3697      3695      3698      3698      3699      3698      3700
      3700      3701      3700      3702      3702      3703      3702      3704
      3702      3705      3705      3706      3705      3707      3705      3708
      3708      3709      3708      3710      3708      3711      3711      3712
      3711      3713      3711      3714      3714      3715      3714      3716
      3714      3717      3717      3718      3717      3719      3717      3720
      3720      3721      3720      3722      3720      3723      3723      3724
      3723      3725      3723      3726      3727      3728      3727      3729
      3727      3730      3727      3731      3731      3732      3731      3733
      3731      3734      3734      3735      3734      3736      3734      3737
      3737      3738      3737      3739      3737      3740      3740      3741
      3740      3742      3740      3743      3743      3744      3743      3745
      3743      3746      3746      3747      3746      3748      3746      3749
      3749      3750      3749      3751      3749      3752      3752      3753
      3752      3754      3752      3755      3755      3756      3755      3757
      3755      3758      3758      3759      3758      3760      3758      3761
      3761      3762      3761      3763      3761      3764      3764      3765
      3764      3766      3764      3767      3767      3768      3767      3769
      3767      3770      3770      3771      3770      3772      3773      3774
      3773      3775      3775      3776      3776      3777      3776      3778
      3776      3779      3779      3780      3779      3781      3779      3808
      3781      3782      3781      3783      3781      3784      3784      3785
      3785      3786      3785      3806      3785      3807      3786      3787
      3787      3788      3787      3789      3787      3790      3790      3791
      3790      3792      3790      3793      3793      3794      3793      3798
      3793      3802      3794      3795      3794      3796      3794      3797
      3798      3799      3798      3800      3798      3801      3802      3803
      3802      3804      3802      3805      3808      3809      3809      3810
      3811      3812      3811      3813      3811      3814      3814      3815
      3814      3816      3814      3817      3817      3818      3817      3819
      3817      3820      3820      3821      3820      3822      3820      3823
      3823      3824      3823      3825      3823      3826      3826      3827
      3826      3828      3826      3829      3829      3830      3829      3831
      3829      3832      3832      3833      3832      3834      3834      3835
      3834      3836      3836      3837      3836      3838      3836      3839
      3839      3840      3839      3841      3839      3842      3842      3843
      3842      3844      3842      3845      3845      3846      3845      3847
      3845      3848      3848      3849      3848      3850      3848      3851
      3851      3852      3851      3853      3851      3854      3854      3855
      3854      3856      3854      3857      3857      3858      3857      3859
      3857      3860      3861      3862      3861      3863      3861      3864
      3861      3865      3865      3866      3865      3867      3865      3868
      3868      3869      3868      3870      3868      3871      3871      3872
      3871      3873      3871      3874      3874      3875      3874      3876
      3874      3877      3877      3878      3877      3879      3877      3880
      3880      3881      3880      3882      3880      3883      3883      3884
      3883      3885      3883      3886      3886      3887      3886      3888
      3886      3889      3889      3890      3889      3891      3889      3892
      3892      3893      3892      3894      3892      3895      3895      3896
      3895      3897      3895      3898      3898      3899      3898      3900
      3898      3901      3901      3902      3901      3903      3901      3904
      3904      3905      3904      3906      3907      3908      3907      3909
      3909      3910      3910      3911      3910      3912      3910      3913
      3913      3914      3913      3915      3913      3942      3915      3916
      3915      3917      3915      3918      3918      3919      3919      3920
      3919      3940      3919      3941      3920      3921      3921      3922
      3921      3923      3921      3924      3924      3925      3924      3926
      3924      3927      3927      3928      3927      3932      3927      3936
      3928      3929      3928      3930      3928      3931      3932      3933
      3932      3934      3932      3935      3936      3937      3936      3938
      3936      3939      3942      3943      3943      3944      3945      3946
      3945      3947      3945      3948      3948      3949      3948      3950
      3948      3951      3951      3952      3951      3953      3951      3954
      3954      3955      3954      3956      3954      3957      3957      3958
      3957      3959      3957      3960      3960      3961      3960      3962
      3960      3963      3963      3964      3963      3965      3963      3966
      3966      3967      3966      3968      3968      3969      3968      3970
      3970      3971      3970      3972      3970      3973      3973      3974
      3973      3975      3973      3976      3976      3977      3976      3978
      3976      3979      3979      3980      3979      3981      3979      3982
      3982      3983      3982      3984      3982      3985      3985      3986
      3985      3987      3985      3988      3988      3989      3988      3990
      3988      3991      3991      3992      3991      3993      3991      3994
      3995      3996      3995      3997      3995      3998      3995      3999
      3999      4000      3999      4001      3999      4002      4002      4003
      4002      4004      4002      4005      4005      4006      4005      4007
      4005      4008      4008      4009      4008      4010      4008      4011
      4011      4012      4011      4013      4011      4014      4014      4015
      4014      4016      4014      4017      4017      4018      4017      4019
      4017      4020      4020      4021      4020      4022      4020      4023
      4023      4024      4023      4025      4023      4026      4026      4027
      4026      4028      4026      4029      4029      4030      4029      4031
      4029      4032      4032      4033      4032      4034      4032      4035
      4035      4036      4035      4037      4035      4038      4038      4039
      4038      4040      4041      4042      4041      4043      4043      4044
      4044      4045      4044      4046      4044      4047      4047      4048
      4047      4049      4047      4076      4049      4050      4049      4051
      4049      4052      4052      4053      4053      4054      4053      4074
      4053      4075      4054      4055      4055      4056      4055      4057
      4055      4058      4058      4059      4058      4060      4058      4061
      4061      4062      4061      4066      4061      4070      4062      4063
      4062      4064      4062      4065      4066      4067      4066      4068
      4066      4069      4070      4071      4070      4072      4070      4073
      4076      4077      4077      4078      4079      4080      4079      4081
      4079      4082      4082      4083      4082      4084      4082      4085
      4085      4086      4085      4087      4085      4088      4088      4089
      4088      4090      4088      4091      4091      4092      4091      4093
      4091      4094      4094      4095      4094      4096      4094      4097
      4097      4098      4097      4099      4097      4100      4100      4101
      4100      4102      4102      4103      4102      4104      4104      4105
      4104      4106      4104      4107      4107      4108      4107      4109
      4107      4110      4110      4111      4110      4112      4110      4113
      4113      4114      4113      4115      4113      4116      4116      4117
      4116      4118      4116      4119      4119      4120      4119      4121
      4119      4122      4122      4123      4122      4124      4122      4125
      4125      4126      4125      4127      4125      4128      4129      4130
      4129      4131      4129      4132      4129      4133      4133      4134
      4133      4135      4133      4136      4136      4137      4136      4138
      4136      4139      4139      4140      4139      4141      4139      4142
      4142      4143      4142      4144      4142      4145      4145      4146
      4145      4147      4145      4148      4148      4149      4148      4150
      4148      4151      4151      4152      4151      4153      4151      4154
      4154      4155      4154      4156      4154      4157      4157      4158
      4157      4159      4157      4160      4160      4161      4160      4162
      4160      4163      4163      4164      4163      4165      4163      4166
      4166      4167      4166      4168      4166      4169      4169      4170
      4169      4171      4169      4172      4172      4173      4172      4174
      4175      4176      4175      4177      4177      4178      4178      4179
      4178      4180      4178      4181      4181      4182      4181      4183
      4181      4210      4183      4184      4183      4185      4183      4186
      4186      4187      4187      4188      4187      4208      4187      4209
      4188      4189      4189      4190      4189      4191      4189      4192
      4192      4193      4192      4194      4192      4195      4195      4196
      4195      4200      4195      4204      4196      4197      4196      4198
      4196      4199      4200      4201      4200      4202      4200      4203
      4204      4205      4204      4206      4204      4207      4210      4211
      4211      4212      4213      4214      4213      4215      4213      4216
      4216      4217      4216      4218      4216      4219      4219      4220
      4219      4221      4219      4222      4222      4223      4222      4224
      4222      4225      4225      4226      4225      4227      4225      4228
      4228      4229      4228      4230      4228      4231      4231      4232
      4231      4233      4231      4234      4234      4235      4234      4236
      4236      4237      4236      4238      4238      4239      4238      4240
      4238      4241      4241      4242      4241      4243      4241      4244
      4244      4245      4244      4246      4244      4247      4247      4248
      4247      4249      4247      4250      4250      4251      4250      4252
      4250      4253      4253      4254      4253      4255      4253      4256
      4256      4257      4256      4258      4256      4259      4259      4260
      4259      4261      4259      4262      4263      4264      4263      4265
      4263      4266      4263      4267      4267      4268      4267      4269
      4267      4270      4270      4271      4270      4272      4270      4273
      4273      4274      4273      4275      4273      4276      4276      4277
      4276      4278      4276      4279      4279      4280      4279      4281
      4279      4282      4282      4283      4282      4284      4282      4285
      4285      4286      4285      4287      4285      4288      4288      4289
      4288      4290      4288      4291      4291      4292      4291      4293
      4291      4294      4294      4295      4294      4296      4294      4297
      4297      4298      4297      4299      4297      4300      4300      4301
      4300      4302      4300      4303      4303      4304      4303      4305
      4303      4306      4306      4307      4306      4308      4309      4310
      4309      4311      4311      4312      4312      4313      4312      4314
      4312      4315      4315      4316      4315      4317      4315      4344
      4317      4318      4317      4319      4317      4320      4320      4321
      4321      4322      4321      4342      4321      4343      4322      4323
      4323      4324      4323      4325      4323      4326      4326      4327
      4326      4328      4326      4329      4329      4330      4329      4334
      4329      4338      4330      4331      4330      4332      4330      4333
      4334      4335      4334      4336      4334      4337      4338      4339
      4338      4340      4338      4341      4344      4345      4345      4346
      4347      4348      4347      4349      4347      4350      4350      4351
      4350      4352      4350      4353      4353      4354      4353      4355
      4353      4356      4356      4357      4356      4358      4356      4359
      4359      4360      4359      4361      4359      4362      4362      4363
      4362      4364      4362      4365      4365      4366      4365      4367
      4365      4368      4368      4369      4368      4370      4370      4371
      4370      4372      4372      4373      4372      4374      4372      4375
      4375      4376      4375      4377      4375      4378      4378      4379
      4378      4380      4378      4381      4381      4382      4381      4383
      4381      4384      4384      4385      4384      4386      4384      4387
      4387      4388      4387      4389      4387      4390      4390      4391
      4390      4392      4390      4393      4393      4394      4393      4395
      4393      4396      4397      4398      4397      4399      4397      4400
      4397      4401      4401      4402      4401      4403      4401      4404
      4404      4405      4404      4406      4404      4407      4407      4408
      4407      4409      4407      4410      4410      4411      4410      4412
      4410      4413      4413      4414      4413      4415      4413      4416
      4416      4417      4416      4418      4416      4419      4419      4420
      4419      4421      4419      4422      4422      4423      4422      4424
      4422      4425      4425      4426      4425      4427      4425      4428
      4428      4429      4428      4430      4428      4431      4431      4432
      4431      4433      4431      4434      4434      4435      4434      4436
      4434      4437      4437      4438      4437      4439      4437      4440
      4440      4441      4440      4442      4443      4444      4443      4445
      4445      4446      4446      4447      4446      4448      4446      4449
      4449      4450      4449      4451      4449      4478      4451      4452
      4451      4453      4451      4454      4454      4455      4455      4456
      4455      4476      4455      4477      4456      4457      4457      4458
      4457      4459      4457      4460      4460      4461      4460      4462
      4460      4463      4463      4464      4463      4468      4463      4472
      4464      4465      4464      4466      4464      4467      4468      4469
      4468      4470      4468      4471      4472      4473      4472      4474
      4472      4475      4478      4479      4479      4480      4481      4482
      4481      4483      4481      4484      4484      4485      4484      4486
      4484      4487      4487      4488      4487      4489      4487      4490
      4490      4491      4490      4492      4490      4493      4493      4494
      4493      4495      4493      4496      4496      4497      4496      4498
      4496      4499      4499      4500      4499      4501      4499      4502
      4502      4503      4502      4504      4504      4505      4504      4506
      4506      4507      4506      4508      4506      4509      4509      4510
      4509      4511      4509      4512      4512      4513      4512      4514
      4512      4515      4515      4516      4515      4517      4515      4518
      4518      4519      4518      4520      4518      4521      4521      4522
      4521      4523      4521      4524      4524      4525      4524      4526
      4524      4527      4527      4528      4527      4529      4527      4530
      4531      4532      4531      4533      4531      4534      4531      4535
      4535      4536      4535      4537      4535      4538      4538      4539
      4538      4540      4538      4541      4541      4542      4541      4543
      4541      4544      4544      4545      4544      4546      4544      4547
      4547      4548      4547      4549      4547      4550      4550      4551
      4550      4552      4550      4553      4553      4554      4553      4555
      4553      4556      4556      4557      4556      4558      4556      4559
      4559      4560      4559      4561      4559      4562      4562      4563
      4562      4564      4562      4565      4565      4566      4565      4567
      4565      4568      4568      4569      4568      4570      4568      4571
      4571      4572      4571      4573      4571      4574      4574      4575
      4574      4576      4577      4578      4577      4579      4579      4580
      4580      4581      4580      4582      4580      4583      4583      4584
      4583      4585      4583      4612      4585      4586      4585      4587
      4585      4588      4588      4589      4589      4590      4589      4610
      4589      4611      4590      4591      4591      4592      4591      4593
      4591      4594      4594      4595      4594      4596      4594      4597
      4597      4598      4597      4602      4597      4606      4598      4599
      4598      4600      4598      4601      4602      4603      4602      4604
      4602      4605      4606      4607      4606      4608      4606      4609
      4612      4613      4613      4614      4615      4616      4615      4617
      4615      4618      4618      4619      4618      4620      4618      4621
      4621      4622      4621      4623      4621      4624      4624      4625
      4624      4626      4624      4627      4627      4628      4627      4629
      4627      4630      4630      4631      4630      4632      4630      4633
      4633      4634      4633      4635      4633      4636      4636      4637
      4636      4638      4638      4639      4638      4640      4640      4641
      4640      4642      4640      4643      4643      4644      4643      4645
      4643      4646      4646      4647      4646      4648      4646      4649
      4649      4650      4649      4651      4649      4652      4652      4653
      4652      4654      4652      4655      4655      4656      4655      4657
      4655      4658      4658      4659      4658      4660      4658      4661
      4661      4662      4661      4663      4661      4664      4665      4666
      4665      4667      4665      4668      4665      4669      4669      4670
      4669      4671      4669      4672      4672      4673      4672      4674
      4672      4675      4675      4676      4675      4677      4675      4678
      4678      4679      4678      4680      4678      4681      4681      4682
      4681      4683      4681      4684      4684      4685      4684      4686
      4684      4687      4687      4688      4687      4689      4687      4690
      4690      4691      4690      4692      4690      4693      4693      4694
      4693      4695      4693      4696      4696      4697      4696      4698
      4696      4699      4699      4700      4699      4701      4699      4702
      4702      4703      4702      4704      4702      4705      4705      4706
      4705      4707      4705      4708      4708      4709      4708      4710
      4711      4712      4711      4713      4713      4714      4714      4715
      4714      4716      4714      4717      4717      4718      4717      4719
      4717      4746      4719      4720      4719      4721      4719      4722
      4722      4723      4723      4724      4723      4744      4723      4745
      4724      4725      4725      4726      4725      4727      4725      4728
      4728      4729      4728      4730      4728      4731      4731      4732
      4731      4736      4731      4740      4732      4733      4732      4734
      4732      4735      4736      4737      4736      4738      4736      4739
      4740      4741      4740      4742      4740      4743      4746      4747
      4747      4748      4749      4750      4749      4751      4749      4752
      4752      4753      4752      4754      4752      4755      4755      4756
      4755      4757      4755      4758      4758      4759      4758      4760
      4758      4761      4761      4762      4761      4763      4761      4764
      4764      4765      4764      4766      4764      4767      4767      4768
      4767      4769      4767      4770      4770      4771      4770      4772
      4772      4773      4772      4774      4774      4775      4774      4776
      4774      4777      4777      4778      4777      4779      4777      4780
      4780      4781      4780      4782      4780      4783      4783      4784
      4783      4785      4783      4786      4786      4787      4786      4788
      4786      4789      4789      4790      4789      4791      4789      4792
      4792      4793      4792      4794      4792      4795      4795      4796
      4795      4797      4795      4798      4799      4800      4799      4801
      4799      4802      4799      4803      4803      4804      4803      4805
      4803      4806      4806      4807      4806      4808      4806      4809
      4809      4810      4809      4811      4809      4812      4812      4813
      4812      4814      4812      4815      4815      4816      4815      4817
      4815      4818      4818      4819      4818      4820      4818      4821
      4821      4822      4821      4823      4821      4824      4824      4825
      4824      4826      4824      4827      4827      4828      4827      4829
      4827      4830      4830      4831      4830      4832      4830      4833
      4833      4834      4833      4835      4833      4836      4836      4837
      4836      4838      4836      4839      4839      4840      4839      4841
      4839      4842      4842      4843      4842      4844      4845      4846
      4845      4847      4847      4848      4848      4849      4848      4850
      4848      4851      4851      4852      4851      4853      4851      4880
      4853      4854      4853      4855      4853      4856      4856      4857
      4857      4858      4857      4878      4857      4879      4858      4859
      4859      4860      4859      4861      4859      4862      4862      4863
      4862      4864      4862      4865      4865      4866      4865      4870
      4865      4874      4866      4867      4866      4868      4866      4869
      4870      4871      4870      4872      4870      4873      4874      4875
      4874      4876      4874      4877      4880      4881      4881      4882
      4883      4884      4883      4885      4883      4886      4886      4887
      4886      4888      4886      4889      4889      4890      4889      4891
      4889      4892      4892      4893      4892      4894      4892      4895
      4895      4896      4895      4897      4895      4898      4898      4899
      4898      4900      4898      4901      4901      4902      4901      4903
      4901      4904      4904      4905      4904      4906      4906      4907
      4906      4908      4908      4909      4908      4910      4908      4911
      4911      4912      4911      4913      4911      4914      4914      4915
      4914      4916      4914      4917      4917      4918      4917      4919
      4917      4920      4920      4921      4920      4922      4920      4923
      4923      4924      4923      4925      4923      4926      4926      4927
      4926      4928      4926      4929      4929      4930      4929      4931
      4929      4932      4933      4934      4933      4935      4933      4936
      4933      4937      4937      4938      4937      4939      4937      4940
      4940      4941      4940      4942      4940      4943      4943      4944
      4943      4945      4943      4946      4946      4947      4946      4948
      4946      4949      4949      4950      4949      4951      4949      4952
      4952      4953      4952      4954      4952      4955      4955      4956
      4955      4957      4955      4958      4958      4959      4958      4960
      4958      4961      4961      4962      4961      4963      4961      4964
      4964      4965      4964      4966      4964      4967      4967      4968
      4967      4969      4967      4970      4970      4971      4970      4972
      4970      4973      4973      4974      4973      4975      4973      4976
      4976      4977      4976      4978      4979      4980      4979      4981
      4981      4982      4982      4983      4982      4984      4982      4985
      4985      4986      4985      4987      4985      5014      4987      4988
      4987      4989      4987      4990      4990      4991      4991      4992
      4991      5012      4991      5013      4992      4993      4993      4994
      4993      4995      4993      4996      4996      4997      4996      4998
      4996      4999      4999      5000      4999      5004      4999      5008
      5000      5001      5000      5002      5000      5003      5004      5005
      5004      5006      5004      5007      5008      5009      5008      5010
      5008      5011      5014      5015      5015      5016      5017      5018
      5017      5019      5017      5020      5020      5021      5020      5022
      5020      5023      5023      5024      5023      5025      5023      5026
      5026      5027      5026      5028      5026      5029      5029      5030
      5029      5031      5029      5032      5032      5033      5032      5034
      5032      5035      5035      5036      5035      5037      5035      5038
      5038      5039      5038      5040      5040      5041      5040      5042
      5042      5043      5042      5044      5042      5045      5045      5046
      5045      5047      5045      5048      5048      5049      5048      5050
      5048      5051      5051      5052      5051      5053      5051      5054
      5054      5055      5054      5056      5054      5057      5057      5058
      5057      5059      5057      5060      5060      5061      5060      5062
      5060      5063      5063      5064      5063      5065      5063      5066
      5067      5068      5067      5069      5067      5070      5067      5071
      5071      5072      5071      5073      5071      5074      5074      5075
      5074      5076      5074      5077      5077      5078      5077      5079
      5077      5080      5080      5081      5080      5082      5080      5083
      5083      5084      5083      5085      5083      5086      5086      5087
      5086      5088      5086      5089      5089      5090      5089      5091
      5089      5092      5092      5093      5092      5094      5092      5095
      5095      5096      5095      5097      5095      5098      5098      5099
      5098      5100      5098      5101      5101      5102      5101      5103
      5101      5104      5104      5105      5104      5106      5104      5107
      5107      5108      5107      5109      5107      5110      5110      5111
      5110      5112      5113      5114      5113      5115      5115      5116
      5116      5117      5116      5118      5116      5119      5119      5120
      5119      5121      5119      5148      5121      5122      5121      5123
      5121      5124      5124      5125      5125      5126      5125      5146
      5125      5147      5126      5127      5127      5128      5127      5129
      5127      5130      5130      5131      5130      5132      5130      5133
      5133      5134      5133      5138      5133      5142      5134      5135
      5134      5136      5134      5137      5138      5139      5138      5140
      5138      5141      5142      5143      5142      5144      5142      5145
      5148      5149      5149      5150      5151      5152      5151      5153
      5151      5154      5154      5155      5154      5156      5154      5157
      5157      5158      5157      5159      5157      5160      5160      5161
      5160      5162      5160      5163      5163      5164      5163      5165
      5163      5166      5166      5167      5166      5168      5166      5169
      5169      5170      5169      5171      5169      5172      5172      5173
      5172      5174      5174      5175      5174      5176      5176      5177
      5176      5178      5176      5179      5179      5180      5179      5181
      5179      5182      5182      5183      5182      5184      5182      5185
      5185      5186      5185      5187      5185      5188      5188      5189
      5188      5190      5188      5191      5191      5192      5191      5193
      5191      5194      5194      5195      5194      5196      5194      5197
      5197      5198      5197      5199      5197      5200      5201      5202
      5201      5203      5201      5204      5201      5205      5205      5206
      5205      5207      5205      5208      5208      5209      5208      5210
      5208      5211      5211      5212      5211      5213      5211      5214
      5214      5215      5214      5216      5214      5217      5217      5218
      5217      5219      5217      5220      5220      5221      5220      5222
      5220      5223      5223      5224      5223      5225      5223      5226
      5226      5227      5226      5228      5226      5229      5229      5230
      5229      5231      5229      5232      5232      5233      5232      5234
      5232      5235      5235      5236      5235      5237      5235      5238
      5238      5239      5238      5240      5238      5241      5241      5242
      5241      5243      5241      5244      5244      5245      5244      5246
      5247      5248      5247      5249      5249      5250      5250      5251
      5250      5252      5250      5253      5253      5254      5253      5255
      5253      5282      5255      5256      5255      5257      5255      5258
      5258      5259      5259      5260      5259      5280      5259      5281
      5260      5261      5261      5262      5261      5263      5261      5264
      5264      5265      5264      5266      5264      5267      5267      5268
      5267      5272      5267      5276      5268      5269      5268      5270
      5268      5271      5272      5273      5272      5274      5272      5275
      5276      5277      5276      5278      5276      5279      5282      5283
      5283      5284      5285      5286      5285      5287      5285      5288
      5288      5289      5288      5290      5288      5291      5291      5292
      5291      5293      5291      5294      5294      5295      5294      5296
      5294      5297      5297      5298      5297      5299      5297      5300
      5300      5301      5300      5302      5300      5303      5303      5304
      5303      5305      5303      5306      5306      5307      5306      5308
      5308      5309      5308      5310      5310      5311      5310      5312
      5310      5313      5313      5314      5313      5315      5313      5316
      5316      5317      5316      5318      5316      5319      5319      5320
      5319      5321      5319      5322      5322      5323      5322      5324
      5322      5325      5325      5326      5325      5327      5325      5328
      5328      5329      5328      5330      5328      5331      5331      5332
      5331      5333      5331      5334      5335      5336      5335      5337
      5335      5338      5335      5339      5339      5340      5339      5341
      5339      5342      5342      5343      5342      5344      5342      5345
      5345      5346      5345      5347      5345      5348      5348      5349
      5348      5350      5348      5351      5351      5352      5351      5353
      5351      5354      5354      5355      5354      5356      5354      5357
      5357      5358      5357      5359      5357      5360      5360      5361
      5360      5362      5360      5363      5363      5364      5363      5365
      5363      5366      5366      5367      5366      5368      5366      5369
      5369      5370      5369      5371      5369      5372      5372      5373
      5372      5374      5372      5375      5375      5376      5375      5377
      5375      5378      5378      5379      5378      5380      5381      5382
      5381      5383      5383      5384      5384      5385      5384      5386
      5384      5387      5387      5388      5387      5389      5387      5416
      5389      5390      5389      5391      5389      5392      5392      5393
      5393      5394      5393      5414      5393      5415      5394      5395
      5395      5396      5395      5397      5395      5398      5398      5399
      5398      5400      5398      5401      5401      5402      5401      5406
      5401      5410      5402      5403      5402      5404      5402      5405
      5406      5407      5406      5408      5406      5409      5410      5411
      5410      5412      5410      5413      5416      5417      5417      5418
      5419      5420      5419      5421      5419      5422      5422      5423
      5422      5424      5422      5425      5425      5426      5425      5427
      5425      5428      5428      5429      5428      5430      5428      5431
      5431      5432      5431      5433      5431      5434      5434      5435
      5434      5436      5434      5437      5437      5438      5437      5439
      5437      5440      5440      5441      5440      5442      5442      5443
      5442      5444      5444      5445      5444      5446      5444      5447
      5447      5448      5447      5449      5447      5450      5450      5451
      5450      5452      5450      5453      5453      5454      5453      5455
      5453      5456      5456      5457      5456      5458      5456      5459
      5459      5460      5459      5461      5459      5462      5462      5463
      5462      5464      5462      5465      5465      5466      5465      5467
      5465      5468      5469      5470      5469      5471      5469      5472
      5469      5473      5473      5474      5473      5475      5473      5476
      5476      5477      5476      5478      5476      5479      5479      5480
      5479      5481      5479      5482      5482      5483      5482      5484
      5482      5485      5485      5486      5485      5487      5485      5488
      5488      5489      5488      5490      5488      5491      5491      5492
      5491      5493      5491      5494      5494      5495      5494      5496
      5494      5497      5497      5498      5497      5499      5497      5500
      5500      5501      5500      5502      5500      5503      5503      5504
      5503      5505      5503      5506      5506      5507      5506      5508
      5506      5509      5509      5510      5509      5511      5509      5512
      5512      5513      5512      5514      5515      5516      5515      5517
      5517      5518      5518      5519      5518      5520      5518      5521
      5521      5522      5521      5523      5521      5550      5523      5524
      5523      5525      5523      5526      5526      5527      5527      5528
      5527      5548      5527      5549      5528      5529      5529      5530
      5529      5531      5529      5532      5532      5533      5532      5534
      5532      5535      5535      5536      5535      5540      5535      5544
      5536      5537      5536      5538      5536      5539      5540      5541
      5540      5542      5540      5543      5544      5545      5544      5546
      5544      5547      5550      5551      5551      5552      5553      5554
      5553      5555      5553      5556      5556      5557      5556      5558
      5556      5559      5559      5560      5559      5561      5559      5562
      5562      5563      5562      5564      5562      5565      5565      5566
      5565      5567      5565      5568      5568      5569      5568      5570
      5568      5571      5571      5572      5571      5573      5571      5574
      5574      5575      5574      5576      5576      5577      5576      5578
      5578      5579      5578      5580      5578      5581      5581      5582
      5581      5583      5581      5584      5584      5585      5584      5586
      5584      5587      5587      5588      5587      5589      5587      5590
      5590      5591      5590      5592      5590      5593      5593      5594
      5593      5595      5593      5596      5596      5597      5596      5598
      5596      5599      5599      5600      5599      5601      5599      5602
      5603      5604      5603      5605      5603      5606      5603      5607
      5607      5608      5607      5609      5607      5610      5610      5611
      5610      5612      5610      5613      5613      5614      5613      5615
      5613      5616      5616      5617      5616      5618      5616      5619
      5619      5620      5619      5621      5619      5622      5622      5623
      5622      5624      5622      5625      5625      5626      5625      5627
      5625      5628      5628      5629      5628      5630      5628      5631
      5631      5632      5631      5633      5631      5634      5634      5635
      5634      5636      5634      5637      5637      5638      5637      5639
      5637      5640      5640      5641      5640      5642      5640      5643
      5643      5644      5643      5645      5643      5646      5646      5647
      5646      5648      5649      5650      5649      5651      5651      5652
      5652      5653      5652      5654      5652      5655      5655      5656
      5655      5657      5655      5684      5657      5658      5657      5659
      5657      5660      5660      5661      5661      5662      5661      5682
      5661      5683      5662      5663      5663      5664      5663      5665
      5663      5666      5666      5667      5666      5668      5666      5669
      5669      5670      5669      5674      5669      5678      5670      5671
      5670      5672      5670      5673      5674      5675      5674      5676
      5674      5677      5678      5679      5678      5680      5678      5681
      5684      5685      5685      5686      5687      5688      5687      5689
      5687      5690      5690      5691      5690      5692      5690      5693
      5693      5694      5693      5695      5693      5696      5696      5697
      5696      5698      5696      5699      5699      5700      5699      5701
      5699      5702      5702      5703      5702      5704      5702      5705
      5705      5706      5705      5707      5705      5708      5708      5709
      5708      5710      5710      5711      5710      5712      5712      5713
      5712      5714      5712      5715      5715      5716      5715      5717
      5715      5718      5718      5719      5718      5720      5718      5721
      5721      5722      5721      5723      5721      5724      5724      5725
      5724      5726      5724      5727      5727      5728      5727      5729
      5727      5730      5730      5731      5730      5732      5730      5733
      5733      5734      5733      5735      5733      5736      5737      5738
      5737      5739      5737      5740      5737      5741      5741      5742
      5741      5743      5741      5744      5744      5745      5744      5746
      5744      5747      5747      5748      5747      5749      5747      5750
      5750      5751      5750      5752      5750      5753      5753      5754
      5753      5755      5753      5756      5756      5757      5756      5758
      5756      5759      5759      5760      5759      5761      5759      5762
      5762      5763      5762      5764      5762      5765      5765      5766
      5765      5767      5765      5768      5768      5769      5768      5770
      5768      5771      5771      5772      5771      5773      5771      5774
      5774      5775      5774      5776      5774      5777      5777      5778
      5777      5779      5777      5780      5780      5781      5780      5782
      5783      5784      5783      5785      5785      5786      5786      5787
      5786      5788      5786      5789      5789      5790      5789      5791
      5789      5818      5791      5792      5791      5793      5791      5794
      5794      5795      5795      5796      5795      5816      5795      5817
      5796      5797      5797      5798      5797      5799      5797      5800
      5800      5801      5800      5802      5800      5803      5803      5804
      5803      5808      5803      5812      5804      5805      5804      5806
      5804      5807      5808      5809      5808      5810      5808      5811
      5812      5813      5812      5814      5812      5815      5818      5819
      5819      5820      5821      5822      5821      5823      5821      5824
      5824      5825      5824      5826      5824      5827      5827      5828
      5827      5829      5827      5830      5830      5831      5830      5832
      5830      5833      5833      5834      5833      5835      5833      5836
      5836      5837      5836      5838      5836      5839      5839      5840
      5839      5841      5839      5842      5842      5843      5842      5844
      5844      5845      5844      5846      5846      5847      5846      5848
      5846      5849      5849      5850      5849      5851      5849      5852
      5852      5853      5852      5854      5852      5855      5855      5856
      5855      5857      5855      5858      5858      5859      5858      5860
      5858      5861      5861      5862      5861      5863      5861      5864
      5864      5865      5864      5866      5864      5867      5867      5868
      5867      5869      5867      5870      5871      5872      5871      5873
      5871      5874      5871      5875      5875      5876      5875      5877
      5875      5878      5878      5879      5878      5880      5878      5881
      5881      5882      5881      5883      5881      5884      5884      5885
      5884      5886      5884      5887      5887      5888      5887      5889
      5887      5890      5890      5891      5890      5892      5890      5893
      5893      5894      5893      5895      5893      5896      5896      5897
      5896      5898      5896      5899      5899      5900      5899      5901
      5899      5902      5902      5903      5902      5904      5902      5905
      5905      5906      5905      5907      5905      5908      5908      5909
      5908      5910      5908      5911      5911      5912      5911      5913
      5911      5914      5914      5915      5914      5916      5917      5918
      5917      5919      5919      5920      5920      5921      5920      5922
      5920      5923      5923      5924      5923      5925      5923      5952
      5925      5926      5925      5927      5925      5928      5928      5929
      5929      5930      5929      5950      5929      5951      5930      5931
      5931      5932      5931      5933      5931      5934      5934      5935
      5934      5936      5934      5937      5937      5938      5937      5942
      5937      5946      5938      5939      5938      5940      5938      5941
      5942      5943      5942      5944      5942      5945      5946      5947
      5946      5948      5946      5949      5952      5953      5953      5954
      5955      5956      5955      5957      5955      5958      5958      5959
      5958      5960      5958      5961      5961      5962      5961      5963
      5961      5964      5964      5965      5964      5966      5964      5967
      5967      5968      5967      5969      5967      5970      5970      5971
      5970      5972      5970      5973      5973      5974      5973      5975
      5973      5976      5976      5977      5976      5978      5978      5979
      5978      5980      5980      5981      5980      5982      5980      5983
      5983      5984      5983      5985      5983      5986      5986      5987
      5986      5988      5986      5989      5989      5990      5989      5991
      5989      5992      5992      5993      5992      5994      5992      5995
      5995      5996      5995      5997      5995      5998      5998      5999
      5998      6000      5998      6001      6001      6002      6001      6003
      6001      6004      6005      6006      6005      6007      6005      6008
      6005      6009      6009      6010      6009      6011      6009      6012
      6012      6013      6012      6014      6012      6015      6015      6016
      6015      6017      6015      6018      6018      6019      6018      6020
      6018      6021      6021      6022      6021      6023      6021      6024
      6024      6025      6024      6026      6024      6027      6027      6028
      6027      6029      6027      6030      6030      6031      6030      6032
      6030      6033      6033      6034      6033      6035      6033      6036
      6036      6037      6036      6038      6036      6039      6039      6040
      6039      6041      6039      6042      6042      6043      6042      6044
      6042      6045      6045      6046      6045      6047      6045      6048
      6048      6049      6048      6050      6051      6052      6051      6053
      6053      6054      6054      6055      6054      6056      6054      6057
      6057      6058      6057      6059      6057      6086      6059      6060
      6059      6061      6059      6062      6062      6063      6063      6064
      6063      6084      6063      6085      6064      6065      6065      6066
      6065      6067      6065      6068      6068      6069      6068      6070
      6068      6071      6071      6072      6071      6076      6071      6080
      6072      6073      6072      6074      6072      6075      6076      6077
      6076      6078      6076      6079      6080      6081      6080      6082
      6080      6083      6086      6087      6087      6088      6089      6090
      6089      6091      6089      6092      6092      6093      6092      6094
      6092      6095      6095      6096      6095      6097      6095      6098
      6098      6099      6098      6100      6098      6101      6101      6102
      6101      6103      6101      6104      6104      6105      6104      6106
      6104      6107      6107      6108      6107      6109      6107      6110
      6110      6111      6110      6112      6112      6113      6112      6114
      6114      6115      6114      6116      6114      6117      6117      6118
      6117      6119      6117      6120      6120      6121      6120      6122
      6120      6123      6123      6124      6123      6125      6123      6126
      6126      6127      6126      6128      6126      6129      6129      6130
      6129      6131      6129      6132      6132      6133      6132      6134
      6132      6135      6135      6136      6135      6137      6135      6138
      6139      6140      6139      6141      6139      6142      6139      6143
      6143      6144      6143      6145      6143      6146      6146      6147
      6146      6148      6146      6149      6149      6150      6149      6151
      6149      6152      6152      6153      6152      6154      6152      6155
      6155      6156      6155      6157      6155      6158      6158      6159
      6158      6160      6158      6161      6161      6162      6161      6163
      6161      6164      6164      6165      6164      6166      6164      6167
      6167      6168      6167      6169      6167      6170      6170      6171
      6170      6172      6170      6173      6173      6174      6173      6175
      6173      6176      6176      6177      6176      6178      6176      6179
      6179      6180      6179      6181      6179      6182      6182      6183
      6182      6184      6185      6186      6185      6187      6187      6188
      6188      6189      6188      6190      6188      6191      6191      6192
      6191      6193      6191      6220      6193      6194      6193      6195
      6193      6196      6196      6197      6197      6198      6197      6218
      6197      6219      6198      6199      6199      6200      6199      6201
      6199      6202      6202      6203      6202      6204      6202      6205
      6205      6206      6205      6210      6205      6214      6206      6207
      6206      6208      6206      6209      6210      6211      6210      6212
      6210      6213      6214      6215      6214      6216      6214      6217
      6220      6221      6221      6222      6223      6224      6223      6225
      6223      6226      6226      6227      6226      6228      6226      6229
      6229      6230      6229      6231      6229      6232      6232      6233
      6232      6234      6232      6235      6235      6236      6235      6237
      6235      6238      6238      6239      6238      6240      6238      6241
      6241      6242      6241      6243      6241      6244      6244      6245
      6244      6246      6246      6247      6246      6248      6248      6249
      6248      6250      6248      6251      6251      6252      6251      6253
      6251      6254      6254      6255      6254      6256      6254      6257
      6257      6258      6257      6259      6257      6260      6260      6261
      6260      6262      6260      6263      6263      6264      6263      6265
      6263      6266      6266      6267      6266      6268      6266      6269
      6269      6270      6269      6271      6269      6272      6273      6274
      6273      6275      6273      6276      6273      6277      6277      6278
      6277      6279      6277      6280      6280      6281      6280      6282
      6280      6283      6283      6284      6283      6285      6283      6286
      6286      6287      6286      6288      6286      6289      6289      6290
      6289      6291      6289      6292      6292      6293      6292      6294
      6292      6295      6295      6296      6295      6297      6295      6298
      6298      6299      6298      6300      6298      6301      6301      6302
      6301      6303      6301      6304      6304      6305      6304      6306
      6304      6307      6307      6308      6307      6309      6307      6310
      6310      6311      6310      6312      6310      6313      6313      6314
      6313      6315      6313      6316      6316      6317      6316      6318
      6319      6320      6319      6321      6321      6322      6322      6323
      6322      6324      6322      6325      6325      6326      6325      6327
      6325      6354      6327      6328      6327      6329      6327      6330
      6330      6331      6331      6332      6331      6352      6331      6353
      6332      6333      6333      6334      6333      6335      6333      6336
      6336      6337      6336      6338      6336      6339      6339      6340
      6339      6344      6339      6348      6340      6341      6340      6342
      6340      6343      6344      6345      6344      6346      6344      6347
      6348      6349      6348      6350      6348      6351      6354      6355
      6355      6356      6357      6358      6357      6359      6357      6360
      6360      6361      6360      6362      6360      6363      6363      6364
      6363      6365      6363      6366      6366      6367      6366      6368
      6366      6369      6369      6370      6369      6371      6369      6372
      6372      6373      6372      6374      6372      6375      6375      6376
      6375      6377      6375      6378      6378      6379      6378      6380
      6380      6381      6380      6382      6382      6383      6382      6384
      6382      6385      6385      6386      6385      6387      6385      6388
      6388      6389      6388      6390      6388      6391      6391      6392
      6391      6393      6391      6394      6394      6395      6394      6396
      6394      6397      6397      6398      6397      6399      6397      6400
      6400      6401      6400      6402      6400      6403      6403      6404
      6403      6405      6403      6406      6407      6408      6407      6409
      6407      6410      6407      6411      6411      6412      6411      6413
      6411      6414      6414      6415      6414      6416      6414      6417
      6417      6418      6417      6419      6417      6420      6420      6421
      6420      6422      6420      6423      6423      6424      6423      6425
      6423      6426      6426      6427      6426      6428      6426      6429
      6429      6430      6429      6431      6429      6432      6432      6433
      6432      6434      6432      6435      6435      6436      6435      6437
      6435      6438      6438      6439      6438      6440      6438      6441
      6441      6442      6441      6443      6441      6444      6444      6445
      6444      6446      6444      6447      6447      6448      6447      6449
      6447      6450      6450      6451      6450      6452      6453      6454
      6453      6455      6455      6456      6456      6457      6456      6458
      6456      6459      6459      6460      6459      6461      6459      6488
      6461      6462      6461      6463      6461      6464      6464      6465
      6465      6466      6465      6486      6465      6487      6466      6467
      6467      6468      6467      6469      6467      6470      6470      6471
      6470      6472      6470      6473      6473      6474      6473      6478
      6473      6482      6474      6475      6474      6476      6474      6477
      6478      6479      6478      6480      6478      6481      6482      6483
      6482      6484      6482      6485      6488      6489      6489      6490
      6491      6492      6491      6493      6491      6494      6494      6495
      6494      6496      6494      6497      6497      6498      6497      6499
      6497      6500      6500      6501      6500      6502      6500      6503
      6503      6504      6503      6505      6503      6506      6506      6507
      6506      6508      6506      6509      6509      6510      6509      6511
      6509      6512      6512      6513      6512      6514      6514      6515
      6514      6516      6516      6517      6516      6518      6516      6519
      6519      6520      6519      6521      6519      6522      6522      6523
      6522      6524      6522      6525      6525      6526      6525      6527
      6525      6528      6528      6529      6528      6530      6528      6531
      6531      6532      6531      6533      6531      6534      6534      6535
      6534      6536      6534      6537      6537      6538      6537      6539
      6537      6540      6541      6542      6541      6543      6541      6544
      6541      6545      6545      6546      6545      6547      6545      6548
      6548      6549      6548      6550      6548      6551      6551      6552
      6551      6553      6551      6554      6554      6555      6554      6556
      6554      6557      6557      6558      6557      6559      6557      6560
      6560      6561      6560      6562      6560      6563      6563      6564
      6563      6565      6563      6566      6566      6567      6566      6568
      6566      6569      6569      6570      6569      6571      6569      6572
      6572      6573      6572      6574      6572      6575      6575      6576
      6575      6577      6575      6578      6578      6579      6578      6580
      6578      6581      6581      6582      6581      6583      6581      6584
      6584      6585      6584      6586      6587      6588      6587      6589
      6589      6590      6590      6591      6590      6592      6590      6593
      6593      6594      6593      6595      6593      6622      6595      6596
      6595      6597      6595      6598      6598      6599      6599      6600
      6599      6620      6599      6621      6600      6601      6601      6602
      6601      6603      6601      6604      6604      6605      6604      6606
      6604      6607      6607      6608      6607      6612      6607      6616
      6608      6609      6608      6610      6608      6611      6612      6613
      6612      6614      6612      6615      6616      6617      6616      6618
      6616      6619      6622      6623      6623      6624      6625      6626
      6625      6627      6625      6628      6628      6629      6628      6630
      6628      6631      6631      6632      6631      6633      6631      6634
      6634      6635      6634      6636      6634      6637      6637      6638
      6637      6639      6637      6640      6640      6641      6640      6642
      6640      6643      6643      6644      6643      6645      6643      6646
      6646      6647      6646      6648      6648      6649      6648      6650
      6650      6651      6650      6652      6650      6653      6653      6654
      6653      6655      6653      6656      6656      6657      6656      6658
      6656      6659      6659      6660      6659      6661      6659      6662
      6662      6663      6662      6664      6662      6665      6665      6666
      6665      6667      6665      6668      6668      6669      6668      6670
      6668      6671      6671      6672      6671      6673      6671      6674
      6675      6676      6675      6677      6675      6678      6675      6679
      6679      6680      6679      6681      6679      6682      6682      6683
      6682      6684      6682      6685      6685      6686      6685      6687
      6685      6688      6688      6689      6688      6690      6688      6691
      6691      6692      6691      6693      6691      6694      6694      6695
      6694      6696      6694      6697      6697      6698      6697      6699
      6697      6700      6700      6701      6700      6702      6700      6703
      6703      6704      6703      6705      6703      6706      6706      6707
      6706      6708      6706      6709      6709      6710      6709      6711
      6709      6712      6712      6713      6712      6714      6712      6715
      6715      6716      6715      6717      6715      6718      6718      6719
      6718      6720      6721      6722      6721      6723      6723      6724
      6724      6725      6724      6726      6724      6727      6727      6728
      6727      6729      6727      6756      6729      6730      6729      6731
      6729      6732      6732      6733      6733      6734      6733      6754
      6733      6755      6734      6735      6735      6736      6735      6737
      6735      6738      6738      6739      6738      6740      6738      6741
      6741      6742      6741      6746      6741      6750      6742      6743
      6742      6744      6742      6745      6746      6747      6746      6748
      6746      6749      6750      6751      6750      6752      6750      6753
      6756      6757      6757      6758      6759      6760      6759      6761
      6759      6762      6762      6763      6762      6764      6762      6765
      6765      6766      6765      6767      6765      6768      6768      6769
      6768      6770      6768      6771      6771      6772      6771      6773
      6771      6774      6774      6775      6774      6776      6774      6777
      6777      6778      6777      6779      6777      6780      6780      6781
      6780      6782      6782      6783      6782      6784      6784      6785
      6784      6786      6784      6787      6787      6788      6787      6789
      6787      6790      6790      6791      6790      6792      6790      6793
      6793      6794      6793      6795      6793      6796      6796      6797
      6796      6798      6796      6799      6799      6800      6799      6801
      6799      6802      6802      6803      6802      6804      6802      6805
      6805      6806      6805      6807      6805      6808      6809      6810
      6809      6811      6809      6812      6809      6813      6813      6814
      6813      6815      6813      6816      6816      6817      6816      6818
      6816      6819      6819      6820      6819      6821      6819      6822
      6822      6823      6822      6824      6822      6825      6825      6826
      6825      6827      6825      6828      6828      6829      6828      6830
      6828      6831      6831      6832      6831      6833      6831      6834
      6834      6835      6834      6836      6834      6837      6837      6838
      6837      6839      6837      6840      6840      6841      6840      6842
      6840      6843      6843      6844      6843      6845      6843      6846
      6846      6847      6846      6848      6846      6849      6849      6850
      6849      6851      6849      6852      6852      6853      6852      6854
      6855      6856      6855      6857      6857      6858      6858      6859
      6858      6860      6858      6861      6861      6862      6861      6863
      6861      6890      6863      6864      6863      6865      6863      6866
      6866      6867      6867      6868      6867      6888      6867      6889
      6868      6869      6869      6870      6869      6871      6869      6872
      6872      6873      6872      6874      6872      6875      6875      6876
      6875      6880      6875      6884      6876      6877      6876      6878
      6876      6879      6880      6881      6880      6882      6880      6883
      6884      6885      6884      6886      6884      6887      6890      6891
      6891      6892      6893      6894      6893      6895      6893      6896
      6896      6897      6896      6898      6896      6899      6899      6900
      6899      6901      6899      6902      6902      6903      6902      6904
      6902      6905      6905      6906      6905      6907      6905      6908
      6908      6909      6908      6910      6908      6911      6911      6912
      6911      6913      6911      6914      6914      6915      6914      6916
      6916      6917      6916      6918      6918      6919      6918      6920
      6918      6921      6921      6922      6921      6923      6921      6924
      6924      6925      6924      6926      6924      6927      6927      6928
      6927      6929      6927      6930      6930      6931      6930      6932
      6930      6933      6933      6934      6933      6935      6933      6936
      6936      6937      6936      6938      6936      6939      6939      6940
      6939      6941      6939      6942      6943      6944      6943      6945
      6943      6946      6943      6947      6947      6948      6947      6949
      6947      6950      6950      6951      6950      6952      6950      6953
      6953      6954      6953      6955      6953      6956      6956      6957
      6956      6958      6956      6959      6959      6960      6959      6961
      6959      6962      6962      6963      6962      6964      6962      6965
      6965      6966      6965      6967      6965      6968      6968      6969
      6968      6970      6968      6971      6971      6972      6971      6973
      6971      6974      6974      6975      6974      6976      6974      6977
      6977      6978      6977      6979      6977      6980      6980      6981
      6980      6982      6980      6983      6983      6984      6983      6985
      6983      6986      6986      6987      6986      6988      6989      6990
      6989      6991      6991      6992      6992      6993      6992      6994
      6992      6995      6995      6996      6995      6997      6995      7024
      6997      6998      6997      6999      6997      7000      7000      7001
      7001      7002      7001      7022      7001      7023      7002      7003
      7003      7004      7003      7005      7003      7006      7006      7007
      7006      7008      7006      7009      7009      7010      7009      7014
      7009      7018      7010      7011      7010      7012      7010      7013
      7014      7015      7014      7016      7014      7017      7018      7019
      7018      7020      7018      7021      7024      7025      7025      7026
      7027      7028      7027      7029      7027      7030      7030      7031
      7030      7032      7030      7033      7033      7034      7033      7035
      7033      7036      7036      7037      7036      7038      7036      7039
      7039      7040      7039      7041      7039      7042      7042      7043
      7042      7044      7042      7045      7045      7046      7045      7047
      7045      7048      7048      7049      7048      7050      7050      7051
      7050      7052      7052      7053      7052      7054      7052      7055
      7055      7056      7055      7057      7055      7058      7058      7059
      7058      7060      7058      7061      7061      7062      7061      7063
      7061      7064      7064      7065      7064      7066      7064      7067
      7067      7068      7067      7069      7067      7070      7070      7071
      7070      7072      7070      7073      7073      7074      7073      7075
      7073      7076      7077      7078      7077      7079      7077      7080
      7077      7081      7081      7082      7081      7083      7081      7084
      7084      7085      7084      7086      7084      7087      7087      7088
      7087      7089      7087      7090      7090      7091      7090      7092
      7090      7093      7093      7094      7093      7095      7093      7096
      7096      7097      7096      7098      7096      7099      7099      7100
      7099      7101      7099      7102      7102      7103      7102      7104
      7102      7105      7105      7106      7105      7107      7105      7108
      7108      7109      7108      7110      7108      7111      7111      7112
      7111      7113      7111      7114      7114      7115      7114      7116
      7114      7117      7117      7118      7117      7119      7117      7120
      7120      7121      7120      7122      7123      7124      7123      7125
      7125      7126      7126      7127      7126      7128      7126      7129
      7129      7130      7129      7131      7129      7158      7131      7132
      7131      7133      7131      7134      7134      7135      7135      7136
      7135      7156      7135      7157      7136      7137      7137      7138
      7137      7139      7137      7140      7140      7141      7140      7142
      7140      7143      7143      7144      7143      7148      7143      7152
      7144      7145      7144      7146      7144      7147      7148      7149
      7148      7150      7148      7151      7152      7153      7152      7154
      7152      7155      7158      7159      7159      7160      7161      7162
      7161      7163      7161      7164      7164      7165      7164      7166
      7164      7167      7167      7168      7167      7169      7167      7170
      7170      7171      7170      7172      7170      7173      7173      7174
      7173      7175      7173      7176      7176      7177      7176      7178
      7176      7179      7179      7180      7179      7181      7179      7182
      7182      7183      7182      7184      7184      7185      7184      7186
      7186      7187      7186      7188      7186      7189      7189      7190
      7189      7191      7189      7192      7192      7193      7192      7194
      7192      7195      7195      7196      7195      7197      7195      7198
      7198      7199      7198      7200      7198      7201      7201      7202
      7201      7203      7201      7204      7204      7205      7204      7206
      7204      7207      7207      7208      7207      7209      7207      7210
      7211      7212      7211      7213      7211      7214      7211      7215
      7215      7216      7215      7217      7215      7218      7218      7219
      7218      7220      7218      7221      7221      7222      7221      7223
      7221      7224      7224      7225      7224      7226      7224      7227
      7227      7228      7227      7229      7227      7230      7230      7231
      7230      7232      7230      7233      7233      7234      7233      7235
      7233      7236      7236      7237      7236      7238      7236      7239
      7239      7240      7239      7241      7239      7242      7242      7243
      7242      7244      7242      7245      7245      7246      7245      7247
      7245      7248      7248      7249      7248      7250      7248      7251
      7251      7252      7251      7253      7251      7254      7254      7255
      7254      7256      7257      7258      7257      7259      7259      7260
      7260      7261      7260      7262      7260      7263      7263      7264
      7263      7265      7263      7292      7265      7266      7265      7267
      7265      7268      7268      7269      7269      7270      7269      7290
      7269      7291      7270      7271      7271      7272      7271      7273
      7271      7274      7274      7275      7274      7276      7274      7277
      7277      7278      7277      7282      7277      7286      7278      7279
      7278      7280      7278      7281      7282      7283      7282      7284
      7282      7285      7286      7287      7286      7288      7286      7289
      7292      7293      7293      7294      7295      7296      7295      7297
      7295      7298      7298      7299      7298      7300      7298      7301
      7301      7302      7301      7303      7301      7304      7304      7305
      7304      7306      7304      7307      7307      7308      7307      7309
      7307      7310      7310      7311      7310      7312      7310      7313
      7313      7314      7313      7315      7313      7316      7316      7317
      7316      7318      7318      7319      7318      7320      7320      7321
      7320      7322      7320      7323      7323      7324      7323      7325
      7323      7326      7326      7327      7326      7328      7326      7329
      7329      7330      7329      7331      7329      7332      7332      7333
      7332      7334      7332      7335      7335      7336      7335      7337
      7335      7338      7338      7339      7338      7340      7338      7341
      7341      7342      7341      7343      7341      7344      7345      7346
      7345      7347      7345      7348      7345      7349      7349      7350
      7349      7351      7349      7352      7352      7353      7352      7354
      7352      7355      7355      7356      7355      7357      7355      7358
      7358      7359      7358      7360      7358      7361      7361      7362
      7361      7363      7361      7364      7364      7365      7364      7366
      7364      7367      7367      7368      7367      7369      7367      7370
      7370      7371      7370      7372      7370      7373      7373      7374
      7373      7375      7373      7376      7376      7377      7376      7378
      7376      7379      7379      7380      7379      7381      7379      7382
      7382      7383      7382      7384      7382      7385      7385      7386
      7385      7387      7385      7388      7388      7389      7388      7390
      7391      7392      7391      7393      7393      7394      7394      7395
      7394      7396      7394      7397      7397      7398      7397      7399
      7397      7426      7399      7400      7399      7401      7399      7402
      7402      7403      7403      7404      7403      7424      7403      7425
      7404      7405      7405      7406      7405      7407      7405      7408
      7408      7409      7408      7410      7408      7411      7411      7412
      7411      7416      7411      7420      7412      7413      7412      7414
      7412      7415      7416      7417      7416      7418      7416      7419
      7420      7421      7420      7422      7420      7423      7426      7427
      7427      7428      7429      7430      7429      7431      7429      7432
      7432      7433      7432      7434      7432      7435      7435      7436
      7435      7437      7435      7438      7438      7439      7438      7440
      7438      7441      7441      7442      7441      7443      7441      7444
      7444      7445      7444      7446      7444      7447      7447      7448
      7447      7449      7447      7450      7450      7451      7450      7452
      7452      7453      7452      7454      7454      7455      7454      7456
      7454      7457      7457      7458      7457      7459      7457      7460
      7460      7461      7460      7462      7460      7463      7463      7464
      7463      7465      7463      7466      7466      7467      7466      7468
      7466      7469      7469      7470      7469      7471      7469      7472
      7472      7473      7472      7474      7472      7475      7475      7476
      7475      7477      7475      7478      7479      7480      7479      7481
      7479      7482      7479      7483      7483      7484      7483      7485
      7483      7486      7486      7487      7486      7488      7486      7489
      7489      7490      7489      7491      7489      7492      7492      7493
      7492      7494      7492      7495      7495      7496      7495      7497
      7495      7498      7498      7499      7498      7500      7498      7501
      7501      7502      7501      7503      7501      7504      7504      7505
      7504      7506      7504      7507      7507      7508      7507      7509
      7507      7510      7510      7511      7510      7512      7510      7513
      7513      7514      7513      7515      7513      7516      7516      7517
      7516      7518      7516      7519      7519      7520      7519      7521
      7519      7522      7522      7523      7522      7524      7525      7526
      7525      7527      7527      7528      7528      7529      7528      7530
      7528      7531      7531      7532      7531      7533      7531      7560
      7533      7534      7533      7535      7533      7536      7536      7537
      7537      7538      7537      7558      7537      7559      7538      7539
      7539      7540      7539      7541      7539      7542      7542      7543
      7542      7544      7542      7545      7545      7546      7545      7550
      7545      7554      7546      7547      7546      7548      7546      7549
      7550      7551      7550      7552      7550      7553      7554      7555
      7554      7556      7554      7557      7560      7561      7561      7562
      7563      7564      7563      7565      7563      7566      7566      7567
      7566      7568      7566      7569      7569      7570      7569      7571
      7569      7572      7572      7573      7572      7574      7572      7575
      7575      7576      7575      7577      7575      7578      7578      7579
      7578      7580      7578      7581      7581      7582      7581      7583
      7581      7584      7584      7585      7584      7586      7586      7587
      7586      7588      7588      7589      7588      7590      7588      7591
      7591      7592      7591      7593      7591      7594      7594      7595
      7594      7596      7594      7597      7597      7598      7597      7599
      7597      7600      7600      7601      7600      7602      7600      7603
      7603      7604      7603      7605      7603      7606      7606      7607
      7606      7608      7606      7609      7609      7610      7609      7611
      7609      7612      7613      7614      7613      7615      7613      7616
      7613      7617      7617      7618      7617      7619      7617      7620
      7620      7621      7620      7622      7620      7623      7623      7624
      7623      7625      7623      7626      7626      7627      7626      7628
      7626      7629      7629      7630      7629      7631      7629      7632
      7632      7633      7632      7634      7632      7635      7635      7636
      7635      7637      7635      7638      7638      7639      7638      7640
      7638      7641      7641      7642      7641      7643      7641      7644
      7644      7645      7644      7646      7644      7647      7647      7648
      7647      7649      7647      7650      7650      7651      7650      7652
      7650      7653      7653      7654      7653      7655      7653      7656
      7656      7657      7656      7658      7659      7660      7659      7661
      7661      7662      7662      7663      7662      7664      7662      7665
      7665      7666      7665      7667      7665      7694      7667      7668
      7667      7669      7667      7670      7670      7671      7671      7672
      7671      7692      7671      7693      7672      7673      7673      7674
      7673      7675      7673      7676      7676      7677      7676      7678
      7676      7679      7679      7680      7679      7684      7679      7688
      7680      7681      7680      7682      7680      7683      7684      7685
      7684      7686      7684      7687      7688      7689      7688      7690
      7688      7691      7694      7695      7695      7696      7697      7698
      7697      7699      7697      7700      7700      7701      7700      7702
      7700      7703      7703      7704      7703      7705      7703      7706
      7706      7707      7706      7708      7706      7709      7709      7710
      7709      7711      7709      7712      7712      7713      7712      7714
      7712      7715      7715      7716      7715      7717      7715      7718
      7718      7719      7718      7720      7720      7721      7720      7722
      7722      7723      7722      7724      7722      7725      7725      7726
      7725      7727      7725      7728      7728      7729      7728      7730
      7728      7731      7731      7732      7731      7733      7731      7734
      7734      7735      7734      7736      7734      7737      7737      7738
      7737      7739      7737      7740      7740      7741      7740      7742
      7740      7743      7743      7744      7743      7745      7743      7746
      7747      7748      7747      7749      7747      7750      7747      7751
      7751      7752      7751      7753      7751      7754      7754      7755
      7754      7756      7754      7757      7757      7758      7757      7759
      7757      7760      7760      7761      7760      7762      7760      7763
      7763      7764      7763      7765      7763      7766      7766      7767
      7766      7768      7766      7769      7769      7770      7769      7771
      7769      7772      7772      7773      7772      7774      7772      7775
      7775      7776      7775      7777      7775      7778      7778      7779
      7778      7780      7778      7781      7781      7782      7781      7783
      7781      7784      7784      7785      7784      7786      7784      7787
      7787      7788      7787      7789      7787      7790      7790      7791
      7790      7792      7793      7794      7793      7795      7795      7796
      7796      7797      7796      7798      7796      7799      7799      7800
      7799      7801      7799      7828      7801      7802      7801      7803
      7801      7804      7804      7805      7805      7806      7805      7826
      7805      7827      7806      7807      7807      7808      7807      7809
      7807      7810      7810      7811      7810      7812      7810      7813
      7813      7814      7813      7818      7813      7822      7814      7815
      7814      7816      7814      7817      7818      7819      7818      7820
      7818      7821      7822      7823      7822      7824      7822      7825
      7828      7829      7829      7830      7831      7832      7831      7833
      7831      7834      7834      7835      7834      7836      7834      7837
      7837      7838      7837      7839      7837      7840      7840      7841
      7840      7842      7840      7843      7843      7844      7843      7845
      7843      7846      7846      7847      7846      7848      7846      7849
      7849      7850      7849      7851      7849      7852      7852      7853
      7852      7854      7854      7855      7854      7856      7856      7857
      7856      7858      7856      7859      7859      7860      7859      7861
      7859      7862      7862      7863      7862      7864      7862      7865
      7865      7866      7865      7867      7865      7868      7868      7869
      7868      7870      7868      7871      7871      7872      7871      7873
      7871      7874      7874      7875      7874      7876      7874      7877
      7877      7878      7877      7879      7877      7880      7881      7882
      7881      7883      7881      7884      7881      7885      7885      7886
      7885      7887      7885      7888      7888      7889      7888      7890
      7888      7891      7891      7892      7891      7893      7891      7894
      7894      7895      7894      7896      7894      7897      7897      7898
      7897      7899      7897      7900      7900      7901      7900      7902
      7900      7903      7903      7904      7903      7905      7903      7906
      7906      7907      7906      7908      7906      7909      7909      7910
      7909      7911      7909      7912      7912      7913      7912      7914
      7912      7915      7915      7916      7915      7917      7915      7918
      7918      7919      7918      7920      7918      7921      7921      7922
      7921      7923      7921      7924      7924      7925      7924      7926
      7927      7928      7927      7929      7929      7930      7930      7931
      7930      7932      7930      7933      7933      7934      7933      7935
      7933      7962      7935      7936      7935      7937      7935      7938
      7938      7939      7939      7940      7939      7960      7939      7961
      7940      7941      7941      7942      7941      7943      7941      7944
      7944      7945      7944      7946      7944      7947      7947      7948
      7947      7952      7947      7956      7948      7949      7948      7950
      7948      7951      7952      7953      7952      7954      7952      7955
      7956      7957      7956      7958      7956      7959      7962      7963
      7963      7964      7965      7966      7965      7967      7965      7968
      7968      7969      7968      7970      7968      7971      7971      7972
      7971      7973      7971      7974      7974      7975      7974      7976
      7974      7977      7977      7978      7977      7979      7977      7980
      7980      7981      7980      7982      7980      7983      7983      7984
      7983      7985      7983      7986      7986      7987      7986      7988
      7988      7989      7988      7990      7990      7991      7990      7992
      7990      7993      7993      7994      7993      7995      7993      7996
      7996      7997      7996      7998      7996      7999      7999      8000
      7999      8001      7999      8002      8002      8003      8002      8004
      8002      8005      8005      8006      8005      8007      8005      8008
      8008      8009      8008      8010      8008      8011      8011      8012
      8011      8013      8011      8014      8015      8016      8015      8017
      8015      8018      8015      8019      8019      8020      8019      8021
      8019      8022      8022      8023      8022      8024      8022      8025
      8025      8026      8025      8027      8025      8028      8028      8029
      8028      8030      8028      8031      8031      8032      8031      8033
      8031      8034      8034      8035      8034      8036      8034      8037
      8037      8038      8037      8039      8037      8040      8040      8041
      8040      8042      8040      8043      8043      8044      8043      8045
      8043      8046      8046      8047      8046      8048      8046      8049
      8049      8050      8049      8051      8049      8052      8052      8053
      8052      8054      8052      8055      8055      8056      8055      8057
      8055      8058      8058      8059      8058      8060      8061      8062
      8061      8063      8063      8064      8064      8065      8064      8066
      8064      8067      8067      8068      8067      8069      8067      8096
      8069      8070      8069      8071      8069      8072      8072      8073
      8073      8074      8073      8094      8073      8095      8074      8075
      8075      8076      8075      8077      8075      8078      8078      8079
      8078      8080      8078      8081      8081      8082      8081      8086
      8081      8090      8082      8083      8082      8084      8082      8085
      8086      8087      8086      8088      8086      8089      8090      8091
      8090      8092      8090      8093      8096      8097      8097      8098
      8099      8100      8099      8101      8099      8102      8102      8103
      8102      8104      8102      8105      8105      8106      8105      8107
      8105      8108      8108      8109      8108      8110      8108      8111
      8111      8112      8111      8113      8111      8114      8114      8115
      8114      8116      8114      8117      8117      8118      8117      8119
      8117      8120      8120      8121      8120      8122      8122      8123
      8122      8124      8124      8125      8124      8126      8124      8127
      8127      8128      8127      8129      8127      8130      8130      8131
      8130      8132      8130      8133      8133      8134      8133      8135
      8133      8136      8136      8137      8136      8138      8136      8139
      8139      8140      8139      8141      8139      8142      8142      8143
      8142      8144      8142      8145      8145      8146      8145      8147
      8145      8148      8149      8150      8149      8151      8149      8152
      8149      8153      8153      8154      8153      8155      8153      8156
      8156      8157      8156      8158      8156      8159      8159      8160
      8159      8161      8159      8162      8162      8163      8162      8164
      8162      8165      8165      8166      8165      8167      8165      8168
      8168      8169      8168      8170      8168      8171      8171      8172
      8171      8173      8171      8174      8174      8175      8174      8176
      8174      8177      8177      8178      8177      8179      8177      8180
      8180      8181      8180      8182      8180      8183      8183      8184
      8183      8185      8183      8186      8186      8187      8186      8188
      8186      8189      8189      8190      8189      8191      8189      8192
      8192      8193      8192      8194      8195      8196      8195      8197
      8197      8198      8198      8199      8198      8200      8198      8201
      8201      8202      8201      8203      8201      8230      8203      8204
      8203      8205      8203      8206      8206      8207      8207      8208
      8207      8228      8207      8229      8208      8209      8209      8210
      8209      8211      8209      8212      8212      8213      8212      8214
      8212      8215      8215      8216      8215      8220      8215      8224
      8216      8217      8216      8218      8216      8219      8220      8221
      8220      8222      8220      8223      8224      8225      8224      8226
      8224      8227      8230      8231      8231      8232      8233      8234
      8233      8235      8233      8236      8236      8237      8236      8238
      8236      8239      8239      8240      8239      8241      8239      8242
      8242      8243      8242      8244      8242      8245      8245      8246
      8245      8247      8245      8248      8248      8249      8248      8250
      8248      8251      8251      8252      8251      8253      8251      8254
      8254      8255      8254      8256      8256      8257      8256      8258
      8258      8259      8258      8260      8258      8261      8261      8262
      8261      8263      8261      8264      8264      8265      8264      8266
      8264      8267      8267      8268      8267      8269      8267      8270
      8270      8271      8270      8272      8270      8273      8273      8274
      8273      8275      8273      8276      8276      8277      8276      8278
      8276      8279      8279      8280      8279      8281      8279      8282
      8283      8284      8283      8285      8283      8286      8283      8287
      8287      8288      8287      8289      8287      8290      8290      8291
      8290      8292      8290      8293      8293      8294      8293      8295
      8293      8296      8296      8297      8296      8298      8296      8299
      8299      8300      8299      8301      8299      8302      8302      8303
      8302      8304      8302      8305      8305      8306      8305      8307
      8305      8308      8308      8309      8308      8310      8308      8311
      8311      8312      8311      8313      8311      8314      8314      8315
      8314      8316      8314      8317      8317      8318      8317      8319
      8317      8320      8320      8321      8320      8322      8320      8323
      8323      8324      8323      8325      8323      8326      8326      8327
      8326      8328      8329      8330      8329      8331      8331      8332
      8332      8333      8332      8334      8332      8335      8335      8336
      8335      8337      8335      8364      8337      8338      8337      8339
      8337      8340      8340      8341      8341      8342      8341      8362
      8341      8363      8342      8343      8343      8344      8343      8345
      8343      8346      8346      8347      8346      8348      8346      8349
      8349      8350      8349      8354      8349      8358      8350      8351
      8350      8352      8350      8353      8354      8355      8354      8356
      8354      8357      8358      8359      8358      8360      8358      8361
      8364      8365      8365      8366      8367      8368      8367      8369
      8367      8370      8370      8371      8370      8372      8370      8373
      8373      8374      8373      8375      8373      8376      8376      8377
      8376      8378      8376      8379      8379      8380      8379      8381
      8379      8382      8382      8383      8382      8384      8382      8385
      8385      8386      8385      8387      8385      8388      8388      8389
      8388      8390      8390      8391      8390      8392      8392      8393
      8392      8394      8392      8395      8395      8396      8395      8397
      8395      8398      8398      8399      8398      8400      8398      8401
      8401      8402      8401      8403      8401      8404      8404      8405
      8404      8406      8404      8407      8407      8408      8407      8409
      8407      8410      8410      8411      8410      8412      8410      8413
      8413      8414      8413      8415      8413      8416      8417      8418
      8417      8419      8417      8420      8417      8421      8421      8422
      8421      8423      8421      8424      8424      8425      8424      8426
      8424      8427      8427      8428      8427      8429      8427      8430
      8430      8431      8430      8432      8430      8433      8433      8434
      8433      8435      8433      8436      8436      8437      8436      8438
      8436      8439      8439      8440      8439      8441      8439      8442
      8442      8443      8442      8444      8442      8445      8445      8446
      8445      8447      8445      8448      8448      8449      8448      8450
      8448      8451      8451      8452      8451      8453      8451      8454
      8454      8455      8454      8456      8454      8457      8457      8458
      8457      8459      8457      8460      8460      8461      8460      8462
      8463      8464      8463      8465      8465      8466      8466      8467
      8466      8468      8466      8469      8469      8470      8469      8471
      8469      8498      8471      8472      8471      8473      8471      8474
      8474      8475      8475      8476      8475      8496      8475      8497
      8476      8477      8477      8478      8477      8479      8477      8480
      8480      8481      8480      8482      8480      8483      8483      8484
      8483      8488      8483      8492      8484      8485      8484      8486
      8484      8487      8488      8489      8488      8490      8488      8491
      8492      8493      8492      8494      8492      8495      8498      8499
      8499      8500      8501      8502      8501      8503      8501      8504
      8504      8505      8504      8506      8504      8507      8507      8508
      8507      8509      8507      8510      8510      8511      8510      8512
      8510      8513      8513      8514      8513      8515      8513      8516
      8516      8517      8516      8518      8516      8519      8519      8520
      8519      8521      8519      8522      8522      8523      8522      8524
      8524      8525      8524      8526      8526      8527      8526      8528
      8526      8529      8529      8530      8529      8531      8529      8532
      8532      8533      8532      8534      8532      8535      8535      8536
      8535      8537      8535      8538      8538      8539      8538      8540
      8538      8541      8541      8542      8541      8543      8541      8544
      8544      8545      8544      8546      8544      8547      8547      8548
      8547      8549      8547      8550      8551      8552      8551      8553
      8551      8554      8551      8555      8555      8556      8555      8557
      8555      8558      8558      8559      8558      8560      8558      8561
      8561      8562      8561      8563      8561      8564      8564      8565
      8564      8566      8564      8567      8567      8568      8567      8569
      8567      8570      8570      8571      8570      8572      8570      8573
      8573      8574      8573      8575      8573      8576      8576      8577
      8576      8578      8576      8579      8579      8580      8579      8581
      8579      8582      8582      8583      8582      8584      8582      8585
      8585      8586      8585      8587      8585      8588      8588      8589
      8588      8590      8588      8591      8591      8592      8591      8593
      8591      8594      8594      8595      8594      8596      8597      8598
      8597      8599      8599      8600      8600      8601      8600      8602
      8600      8603      8603      8604      8603      8605      8603      8632
      8605      8606      8605      8607      8605      8608      8608      8609
      8609      8610      8609      8630      8609      8631      8610      8611
      8611      8612      8611      8613      8611      8614      8614      8615
      8614      8616      8614      8617      8617      8618      8617      8622
      8617      8626      8618      8619      8618      8620      8618      8621
      8622      8623      8622      8624      8622      8625      8626      8627
      8626      8628      8626      8629      8632      8633      8633      8634
      8635      8636      8635      8637      8635      8638      8638      8639
      8638      8640      8638      8641      8641      8642      8641      8643
      8641      8644      8644      8645      8644      8646      8644      8647
      8647      8648      8647      8649      8647      8650      8650      8651
      8650      8652      8650      8653      8653      8654      8653      8655
      8653      8656      8656      8657      8656      8658      8658      8659
      8658      8660      8660      8661      8660      8662      8660      8663
      8663      8664      8663      8665      8663      8666      8666      8667
      8666      8668      8666      8669      8669      8670      8669      8671
      8669      8672      8672      8673      8672      8674      8672      8675
      8675      8676      8675      8677      8675      8678      8678      8679
      8678      8680      8678      8681      8681      8682      8681      8683
      8681      8684      8685      8686      8685      8687      8685      8688
      8685      8689      8689      8690      8689      8691      8689      8692
      8692      8693      8692      8694      8692      8695      8695      8696
      8695      8697      8695      8698      8698      8699      8698      8700
      8698      8701      8701      8702      8701      8703      8701      8704
      8704      8705      8704      8706      8704      8707      8707      8708
      8707      8709      8707      8710      8710      8711      8710      8712
      8710      8713      8713      8714      8713      8715      8713      8716
      8716      8717      8716      8718      8716      8719      8719      8720
      8719      8721      8719      8722      8722      8723      8722      8724
      8722      8725      8725      8726      8725      8727      8725      8728
      8728      8729      8728      8730      8731      8732      8731      8733
      8733      8734      8734      8735      8734      8736      8734      8737
      8737      8738      8737      8739      8737      8766      8739      8740
      8739      8741      8739      8742      8742      8743      8743      8744
      8743      8764      8743      8765      8744      8745      8745      8746
      8745      8747      8745      8748      8748      8749      8748      8750
      8748      8751      8751      8752      8751      8756      8751      8760
      8752      8753      8752      8754      8752      8755      8756      8757
      8756      8758      8756      8759      8760      8761      8760      8762
      8760      8763      8766      8767      8767      8768      8769      8770
      8769      8771      8769      8772      8772      8773      8772      8774
      8772      8775      8775      8776      8775      8777      8775      8778
      8778      8779      8778      8780      8778      8781      8781      8782
      8781      8783      8781      8784      8784      8785      8784      8786
      8784      8787      8787      8788      8787      8789      8787      8790
      8790      8791      8790      8792      8792      8793      8792      8794
      8794      8795      8794      8796      8794      8797      8797      8798
      8797      8799      8797      8800      8800      8801      8800      8802
      8800      8803      8803      8804      8803      8805      8803      8806
      8806      8807      8806      8808      8806      8809      8809      8810
      8809      8811      8809      8812      8812      8813      8812      8814
      8812      8815      8815      8816      8815      8817      8815      8818
      8819      8820      8819      8821      8819      8822      8819      8823
      8823      8824      8823      8825      8823      8826      8826      8827
      8826      8828      8826      8829      8829      8830      8829      8831
      8829      8832      8832      8833      8832      8834      8832      8835
      8835      8836      8835      8837      8835      8838      8838      8839
      8838      8840      8838      8841      8841      8842      8841      8843
      8841      8844      8844      8845      8844      8846      8844      8847
      8847      8848      8847      8849      8847      8850      8850      8851
      8850      8852      8850      8853      8853      8854      8853      8855
      8853      8856      8856      8857      8856      8858      8856      8859
      8859      8860      8859      8861      8859      8862      8862      8863
      8862      8864      8865      8866      8865      8867      8867      8868
      8868      8869      8868      8870      8868      8871      8871      8872
      8871      8873      8871      8900      8873      8874      8873      8875
      8873      8876      8876      8877      8877      8878      8877      8898
      8877      8899      8878      8879      8879      8880      8879      8881
      8879      8882      8882      8883      8882      8884      8882      8885
      8885      8886      8885      8890      8885      8894      8886      8887
      8886      8888      8886      8889      8890      8891      8890      8892
      8890      8893      8894      8895      8894      8896      8894      8897
      8900      8901      8901      8902      8903      8904      8903      8905
      8903      8906      8906      8907      8906      8908      8906      8909
      8909      8910      8909      8911      8909      8912      8912      8913
      8912      8914      8912      8915      8915      8916      8915      8917
      8915      8918      8918      8919      8918      8920      8918      8921
      8921      8922      8921      8923      8921      8924      8924      8925
      8924      8926      8926      8927      8926      8928      8928      8929
      8928      8930      8928      8931      8931      8932      8931      8933
      8931      8934      8934      8935      8934      8936      8934      8937
      8937      8938      8937      8939      8937      8940      8940      8941
      8940      8942      8940      8943      8943      8944      8943      8945
      8943      8946      8946      8947      8946      8948      8946      8949
      8949      8950      8949      8951      8949      8952      8953      8954
      8953      8955      8953      8956      8953      8957      8957      8958
      8957      8959      8957      8960      8960      8961      8960      8962
      8960      8963      8963      8964      8963      8965      8963      8966
      8966      8967      8966      8968      8966      8969      8969      8970
      8969      8971      8969      8972      8972      8973      8972      8974
      8972      8975      8975      8976      8975      8977      8975      8978
      8978      8979      8978      8980      8978      8981      8981      8982
      8981      8983      8981      8984      8984      8985      8984      8986
      8984      8987      8987      8988      8987      8989      8987      8990
      8990      8991      8990      8992      8990      8993      8993      8994
      8993      8995      8993      8996      8996      8997      8996      8998
      8999      9000      8999      9001      9001      9002      9002      9003
      9002      9004      9002      9005      9005      9006      9005      9007
      9005      9034      9007      9008      9007      9009      9007      9010
      9010      9011      9011      9012      9011      9032      9011      9033
      9012      9013      9013      9014      9013      9015      9013      9016
      9016      9017      9016      9018      9016      9019      9019      9020
      9019      9024      9019      9028      9020      9021      9020      9022
      9020      9023      9024      9025      9024      9026      9024      9027
      9028      9029      9028      9030      9028      9031      9034      9035
      9035      9036      9037      9038      9037      9039      9037      9040
      9040      9041      9040      9042      9040      9043      9043      9044
      9043      9045      9043      9046      9046      9047      9046      9048
      9046      9049      9049      9050      9049      9051      9049      9052
      9052      9053      9052      9054      9052      9055      9055      9056
      9055      9057      9055      9058      9058      9059      9058      9060
      9060      9061      9060      9062      9062      9063      9062      9064
      9062      9065      9065      9066      9065      9067      9065      9068
      9068      9069      9068      9070      9068      9071      9071      9072
      9071      9073      9071      9074      9074      9075      9074      9076
      9074      9077      9077      9078      9077      9079      9077      9080
      9080      9081      9080      9082      9080      9083      9083      9084
      9083      9085      9083      9086      9087      9088      9087      9089
      9087      9090      9087      9091      9091      9092      9091      9093
      9091      9094      9094      9095      9094      9096      9094      9097
      9097      9098      9097      9099      9097      9100      9100      9101
      9100      9102      9100      9103      9103      9104      9103      9105
      9103      9106      9106      9107      9106      9108      9106      9109
      9109      9110      9109      9111      9109      9112      9112      9113
      9112      9114      9112      9115      9115      9116      9115      9117
      9115      9118      9118      9119      9118      9120      9118      9121
      9121      9122      9121      9123      9121      9124      9124      9125
      9124      9126      9124      9127      9127      9128      9127      9129
      9127      9130      9130      9131      9130      9132      9133      9134
      9133      9135      9135      9136      9136      9137      9136      9138
      9136      9139      9139      9140      9139      9141      9139      9168
      9141      9142      9141      9143      9141      9144      9144      9145
      9145      9146      9145      9166      9145      9167      9146      9147
      9147      9148      9147      9149      9147      9150      9150      9151
      9150      9152      9150      9153      9153      9154      9153      9158
      9153      9162      9154      9155      9154      9156      9154      9157
      9158      9159      9158      9160      9158      9161      9162      9163
      9162      9164      9162      9165      9168      9169      9169      9170
      9171      9172      9171      9173      9171      9174      9174      9175
      9174      9176      9174      9177      9177      9178      9177      9179
      9177      9180      9180      9181      9180      9182      9180      9183
      9183      9184      9183      9185      9183      9186      9186      9187
      9186      9188      9186      9189      9189      9190      9189      9191
      9189      9192      9192      9193      9192      9194      9194      9195
      9194      9196      9196      9197      9196      9198      9196      9199
      9199      9200      9199      9201      9199      9202      9202      9203
      9202      9204      9202      9205      9205      9206      9205      9207
      9205      9208      9208      9209      9208      9210      9208      9211
      9211      9212      9211      9213      9211      9214      9214      9215
      9214      9216      9214      9217      9217      9218      9217      9219
      9217      9220      9221      9222      9221      9223      9221      9224
      9221      9225      9225      9226      9225      9227      9225      9228
      9228      9229      9228      9230      9228      9231      9231      9232
      9231      9233      9231      9234      9234      9235      9234      9236
      9234      9237      9237      9238      9237      9239      9237      9240
      9240      9241      9240      9242      9240      9243      9243      9244
      9243      9245      9243      9246      9246      9247      9246      9248
      9246      9249      9249      9250      9249      9251      9249      9252
      9252      9253      9252      9254      9252      9255      9255      9256
      9255      9257      9255      9258      9258      9259      9258      9260
      9258      9261      9261      9262      9261      9263      9261      9264
      9264      9265      9264      9266      9267      9268      9267      9269
      9269      9270      9270      9271      9270      9272      9270      9273
      9273      9274      9273      9275      9273      9302      9275      9276
      9275      9277      9275      9278      9278      9279      9279      9280
      9279      9300      9279      9301      9280      9281      9281      9282
      9281      9283      9281      9284      9284      9285      9284      9286
      9284      9287      9287      9288      9287      9292      9287      9296
      9288      9289      9288      9290      9288      9291      9292      9293
      9292      9294      9292      9295      9296      9297      9296      9298
      9296      9299      9302      9303      9303      9304      9305      9306
      9305      9307      9305      9308      9308      9309      9308      9310
      9308      9311      9311      9312      9311      9313      9311      9314
      9314      9315      9314      9316      9314      9317      9317      9318
      9317      9319      9317      9320      9320      9321      9320      9322
      9320      9323      9323      9324      9323      9325      9323      9326
      9326      9327      9326      9328      9328      9329      9328      9330
      9330      9331      9330      9332      9330      9333      9333      9334
      9333      9335      9333      9336      9336      9337      9336      9338
      9336      9339      9339      9340      9339      9341      9339      9342
      9342      9343      9342      9344      9342      9345      9345      9346
      9345      9347      9345      9348      9348      9349      9348      9350
      9348      9351      9351      9352      9351      9353      9351      9354
      9355      9356      9355      9357      9355      9358      9355      9359
      9359      9360      9359      9361      9359      9362      9362      9363
      9362      9364      9362      9365      9365      9366      9365      9367
      9365      9368      9368      9369      9368      9370      9368      9371
      9371      9372      9371      9373      9371      9374      9374      9375
      9374      9376      9374      9377      9377      9378      9377      9379
      9377      9380      9380      9381      9380      9382      9380      9383
      9383      9384      9383      9385      9383      9386      9386      9387
      9386      9388      9386      9389      9389      9390      9389      9391
      9389      9392      9392      9393      9392      9394      9392      9395
      9395      9396      9395      9397      9395      9398      9398      9399
      9398      9400      9401      9402      9401      9403      9403      9404
      9404      9405      9404      9406      9404      9407      9407      9408
      9407      9409      9407      9436      9409      9410      9409      9411
      9409      9412      9412      9413      9413      9414      9413      9434
      9413      9435      9414      9415      9415      9416      9415      9417
      9415      9418      9418      9419      9418      9420      9418      9421
      9421      9422      9421      9426      9421      9430      9422      9423
      9422      9424      9422      9425      9426      9427      9426      9428
      9426      9429      9430      9431      9430      9432      9430      9433
      9436      9437      9437      9438      9439      9440      9439      9441
      9439      9442      9442      9443      9442      9444      9442      9445
      9445      9446      9445      9447      9445      9448      9448      9449
      9448      9450      9448      9451      9451      9452      9451      9453
      9451      9454      9454      9455      9454      9456      9454      9457
      9457      9458      9457      9459      9457      9460      9460      9461
      9460      9462      9462      9463      9462      9464      9464      9465
      9464      9466      9464      9467      9467      9468      9467      9469
      9467      9470      9470      9471      9470      9472      9470      9473
      9473      9474      9473      9475      9473      9476      9476      9477
      9476      9478      9476      9479      9479      9480      9479      9481
      9479      9482      9482      9483      9482      9484      9482      9485
      9485      9486      9485      9487      9485      9488      9489      9490
      9489      9491      9489      9492      9489      9493      9493      9494
      9493      9495      9493      9496      9496      9497      9496      9498
      9496      9499      9499      9500      9499      9501      9499      9502
      9502      9503      9502      9504      9502      9505      9505      9506
      9505      9507      9505      9508      9508      9509      9508      9510
      9508      9511      9511      9512      9511      9513      9511      9514
      9514      9515      9514      9516      9514      9517      9517      9518
      9517      9519      9517      9520      9520      9521      9520      9522
      9520      9523      9523      9524      9523      9525      9523      9526
      9526      9527      9526      9528      9526      9529      9529      9530
      9529      9531      9529      9532      9532      9533      9532      9534
      9535      9536      9535      9537      9537      9538      9538      9539
      9538      9540      9538      9541      9541      9542      9541      9543
      9541      9570      9543      9544      9543      9545      9543      9546
      9546      9547      9547      9548      9547      9568      9547      9569
      9548      9549      9549      9550      9549      9551      9549      9552
      9552      9553      9552      9554      9552      9555      9555      9556
      9555      9560      9555      9564      9556      9557      9556      9558
      9556      9559      9560      9561      9560      9562      9560      9563
      9564      9565      9564      9566      9564      9567      9570      9571
      9571      9572      9573      9574      9573      9575      9573      9576
      9576      9577      9576      9578      9576      9579      9579      9580
      9579      9581      9579      9582      9582      9583      9582      9584
      9582      9585      9585      9586      9585      9587      9585      9588
      9588      9589      9588      9590      9588      9591      9591      9592
      9591      9593      9591      9594      9594      9595      9594      9596
      9596      9597      9596      9598      9598      9599      9598      9600
      9598      9601      9601      9602      9601      9603      9601      9604
      9604      9605      9604      9606      9604      9607      9607      9608
      9607      9609      9607      9610      9610      9611      9610      9612
      9610      9613      9613      9614      9613      9615      9613      9616
      9616      9617      9616      9618      9616      9619      9619      9620
      9619      9621      9619      9622      9623      9624      9623      9625
      9623      9626      9623      9627      9627      9628      9627      9629
      9627      9630      9630      9631      9630      9632      9630      9633
      9633      9634      9633      9635      9633      9636      9636      9637
      9636      9638      9636      9639      9639      9640      9639      9641
      9639      9642      9642      9643      9642      9644      9642      9645
      9645      9646      9645      9647      9645      9648      9648      9649
      9648      9650      9648      9651      9651      9652      9651      9653
      9651      9654      9654      9655      9654      9656      9654      9657
      9657      9658      9657      9659      9657      9660      9660      9661
      9660      9662      9660      9663      9663      9664      9663      9665
      9663      9666      9666      9667      9666      9668      9669      9670
      9669      9671      9671      9672      9672      9673      9672      9674
      9672      9675      9675      9676      9675      9677      9675      9704
      9677      9678      9677      9679      9677      9680      9680      9681
      9681      9682      9681      9702      9681      9703      9682      9683
      9683      9684      9683      9685      9683      9686      9686      9687
      9686      9688      9686      9689      9689      9690      9689      9694
      9689      9698      9690      9691      9690      9692      9690      9693
      9694      9695      9694      9696      9694      9697      9698      9699
      9698      9700      9698      9701      9704      9705      9705      9706
      9707      9708      9707      9709      9707      9710      9710      9711
      9710      9712      9710      9713      9713      9714      9713      9715
      9713      9716      9716      9717      9716      9718      9716      9719
      9719      9720      9719      9721      9719      9722      9722      9723
      9722      9724      9722      9725      9725      9726      9725      9727
      9725      9728      9728      9729      9728      9730      9730      9731
      9730      9732      9732      9733      9732      9734      9732      9735
      9735      9736      9735      9737      9735      9738      9738      9739
      9738      9740      9738      9741      9741      9742      9741      9743
      9741      9744      9744      9745      9744      9746      9744      9747
      9747      9748      9747      9749      9747      9750      9750      9751
      9750      9752      9750      9753      9753      9754      9753      9755
      9753      9756      9757      9758      9757      9759      9757      9760
      9757      9761      9761      9762      9761      9763      9761      9764
      9764      9765      9764      9766      9764      9767      9767      9768
      9767      9769      9767      9770      9770      9771      9770      9772
      9770      9773      9773      9774      9773      9775      9773      9776
      9776      9777      9776      9778      9776      9779      9779      9780
      9779      9781      9779      9782      9782      9783      9782      9784
      9782      9785      9785      9786      9785      9787      9785      9788
      9788      9789      9788      9790      9788      9791      9791      9792
      9791      9793      9791      9794      9794      9795      9794      9796
      9794      9797      9797      9798      9797      9799      9797      9800
      9800      9801      9800      9802      9803      9804      9803      9805
      9805      9806      9806      9807      9806      9808      9806      9809
      9809      9810      9809      9811      9809      9838      9811      9812
      9811      9813      9811      9814      9814      9815      9815      9816
      9815      9836      9815      9837      9816      9817      9817      9818
      9817      9819      9817      9820      9820      9821      9820      9822
      9820      9823      9823      9824      9823      9828      9823      9832
      9824      9825      9824      9826      9824      9827      9828      9829
      9828      9830      9828      9831      9832      9833      9832      9834
      9832      9835      9838      9839      9839      9840      9841      9842
      9841      9843      9841      9844      9844      9845      9844      9846
      9844      9847      9847      9848      9847      9849      9847      9850
      9850      9851      9850      9852      9850      9853      9853      9854
      9853      9855      9853      9856      9856      9857      9856      9858
      9856      9859      9859      9860      9859      9861      9859      9862
      9862      9863      9862      9864      9864      9865      9864      9866
      9866      9867      9866      9868      9866      9869      9869      9870
      9869      9871      9869      9872      9872      9873      9872      9874
      9872      9875      9875      9876      9875      9877      9875      9878
      9878      9879      9878      9880      9878      9881      9881      9882
      9881      9883      9881      9884      9884      9885      9884      9886
      9884      9887      9887      9888      9887      9889      9887      9890
      9891      9892      9891      9893      9891      9894      9891      9895
      9895      9896      9895      9897      9895      9898      9898      9899
      9898      9900      9898      9901      9901      9902      9901      9903
      9901      9904      9904      9905      9904      9906      9904      9907
      9907      9908      9907      9909      9907      9910      9910      9911
      9910      9912      9910      9913      9913      9914      9913      9915
      9913      9916      9916      9917      9916      9918      9916      9919
      9919      9920      9919      9921      9919      9922      9922      9923
      9922      9924      9922      9925      9925      9926      9925      9927
      9925      9928      9928      9929      9928      9930      9928      9931
      9931      9932      9931      9933      9931      9934      9934      9935
      9934      9936      9937      9938      9937      9939      9939      9940
      9940      9941      9940      9942      9940      9943      9943      9944
      9943      9945      9943      9972      9945      9946      9945      9947
      9945      9948      9948      9949      9949      9950      9949      9970
      9949      9971      9950      9951      9951      9952      9951      9953
      9951      9954      9954      9955      9954      9956      9954      9957
      9957      9958      9957      9962      9957      9966      9958      9959
      9958      9960      9958      9961      9962      9963      9962      9964
      9962      9965      9966      9967      9966      9968      9966      9969
      9972      9973      9973      9974      9975      9976      9975      9977
      9975      9978      9978      9979      9978      9980      9978      9981
      9981      9982      9981      9983      9981      9984      9984      9985
      9984      9986      9984      9987      9987      9988      9987      9989
      9987      9990      9990      9991      9990      9992      9990      9993
      9993      9994      9993      9995      9993      9996      9996      9997
      9996      9998      9998      9999      9998     10000     10000     10001
     10000     10002     10000     10003     10003     10004     10003     10005
     10003     10006     10006     10007     10006     10008     10006     10009
     10009     10010     10009     10011     10009     10012     10012     10013
     10012     10014     10012     10015     10015     10016     10015     10017
     10015     10018     10018     10019     10018     10020     10018     10021
     10021     10022     10021     10023     10021     10024     10025     10026
     10025     10027     10025     10028     10025     10029     10029     10030
     10029     10031     10029     10032     10032     10033     10032     10034
     10032     10035     10035     10036     10035     10037     10035     10038
     10038     10039     10038     10040     10038     10041     10041     10042
     10041     10043     10041     10044     10044     10045     10044     10046
     10044     10047     10047     10048     10047     10049     10047     10050
     10050     10051     10050     10052     10050     10053     10053     10054
     10053     10055     10053     10056     10056     10057     10056     10058
     10056     10059     10059     10060     10059     10061     10059     10062
     10062     10063     10062     10064     10062     10065     10065     10066
     10065     10067     10065     10068     10068     10069     10068     10070
     10071     10072     10071     10073     10073     10074     10074     10075
     10074     10076     10074     10077     10077     10078     10077     10079
     10077     10106     10079     10080     10079     10081     10079     10082
     10082     10083     10083     10084     10083     10104     10083     10105
     10084     10085     10085     10086     10085     10087     10085     10088
     10088     10089     10088     10090     10088     10091     10091     10092
     10091     10096     10091     10100     10092     10093     10092     10094
     10092     10095     10096     10097     10096     10098     10096     10099
     10100     10101     10100     10102     10100     10103     10106     10107
     10107     10108     10109     10110     10109     10111     10109     10112
     10112     10113     10112     10114     10112     10115     10115     10116
     10115     10117     10115     10118     10118     10119     10118     10120
     10118     10121     10121     10122     10121     10123     10121     10124
     10124     10125     10124     10126     10124     10127     10127     10128
     10127     10129     10127     10130     10130     10131     10130     10132
     10132     10133     10132     10134     10134     10135     10134     10136
     10134     10137     10137     10138     10137     10139     10137     10140
     10140     10141     10140     10142     10140     10143     10143     10144
     10143     10145     10143     10146     10146     10147     10146     10148
     10146     10149     10149     10150     10149     10151     10149     10152
     10152     10153     10152     10154     10152     10155     10155     10156
     10155     10157     10155     10158     10159     10160     10159     10161
     10159     10162     10159     10163     10163     10164     10163     10165
     10163     10166     10166     10167     10166     10168     10166     10169
     10169     10170     10169     10171     10169     10172     10172     10173
     10172     10174     10172     10175     10175     10176     10175     10177
     10175     10178     10178     10179     10178     10180     10178     10181
     10181     10182     10181     10183     10181     10184     10184     10185
     10184     10186     10184     10187     10187     10188     10187     10189
     10187     10190     10190     10191     10190     10192     10190     10193
     10193     10194     10193     10195     10193     10196     10196     10197
     10196     10198     10196     10199     10199     10200     10199     10201
     10199     10202     10202     10203     10202     10204     10205     10206
     10205     10207     10207     10208     10208     10209     10208     10210
     10208     10211     10211     10212     10211     10213     10211     10240
     10213     10214     10213     10215     10213     10216     10216     10217
     10217     10218     10217     10238     10217     10239     10218     10219
     10219     10220     10219     10221     10219     10222     10222     10223
     10222     10224     10222     10225     10225     10226     10225     10230
     10225     10234     10226     10227     10226     10228     10226     10229
     10230     10231     10230     10232     10230     10233     10234     10235
     10234     10236     10234     10237     10240     10241     10241     10242
     10243     10244     10243     10245     10243     10246     10246     10247
     10246     10248     10246     10249     10249     10250     10249     10251
     10249     10252     10252     10253     10252     10254     10252     10255
     10255     10256     10255     10257     10255     10258     10258     10259
     10258     10260     10258     10261     10261     10262     10261     10263
     10261     10264     10264     10265     10264     10266     10266     10267
     10266     10268     10268     10269     10268     10270     10268     10271
     10271     10272     10271     10273     10271     10274     10274     10275
     10274     10276     10274     10277     10277     10278     10277     10279
     10277     10280     10280     10281     10280     10282     10280     10283
     10283     10284     10283     10285     10283     10286     10286     10287
     10286     10288     10286     10289     10289     10290     10289     10291
     10289     10292     10293     10294     10293     10295     10293     10296
     10293     10297     10297     10298     10297     10299     10297     10300
     10300     10301     10300     10302     10300     10303     10303     10304
     10303     10305     10303     10306     10306     10307     10306     10308
     10306     10309     10309     10310     10309     10311     10309     10312
     10312     10313     10312     10314     10312     10315     10315     10316
     10315     10317     10315     10318     10318     10319     10318     10320
     10318     10321     10321     10322     10321     10323     10321     10324
     10324     10325     10324     10326     10324     10327     10327     10328
     10327     10329     10327     10330     10330     10331     10330     10332
     10330     10333     10333     10334     10333     10335     10333     10336
     10336     10337     10336     10338     10339     10340     10339     10341
     10341     10342     10342     10343     10342     10344     10342     10345
     10345     10346     10345     10347     10345     10374     10347     10348
     10347     10349     10347     10350     10350     10351     10351     10352
     10351     10372     10351     10373     10352     10353     10353     10354
     10353     10355     10353     10356     10356     10357     10356     10358
     10356     10359     10359     10360     10359     10364     10359     10368
     10360     10361     10360     10362     10360     10363     10364     10365
     10364     10366     10364     10367     10368     10369     10368     10370
     10368     10371     10374     10375     10375     10376     10377     10378
     10377     10379     10377     10380     10380     10381     10380     10382
     10380     10383     10383     10384     10383     10385     10383     10386
     10386     10387     10386     10388     10386     10389     10389     10390
     10389     10391     10389     10392     10392     10393     10392     10394
     10392     10395     10395     10396     10395     10397     10395     10398
     10398     10399     10398     10400     10400     10401     10400     10402
     10402     10403     10402     10404     10402     10405     10405     10406
     10405     10407     10405     10408     10408     10409     10408     10410
     10408     10411     10411     10412     10411     10413     10411     10414
     10414     10415     10414     10416     10414     10417     10417     10418
     10417     10419     10417     10420     10420     10421     10420     10422
     10420     10423     10423     10424     10423     10425     10423     10426
     10427     10428     10427     10429     10427     10430     10427     10431
     10431     10432     10431     10433     10431     10434     10434     10435
     10434     10436     10434     10437     10437     10438     10437     10439
     10437     10440     10440     10441     10440     10442     10440     10443
     10443     10444     10443     10445     10443     10446     10446     10447
     10446     10448     10446     10449     10449     10450     10449     10451
     10449     10452     10452     10453     10452     10454     10452     10455
     10455     10456     10455     10457     10455     10458     10458     10459
     10458     10460     10458     10461     10461     10462     10461     10463
     10461     10464     10464     10465     10464     10466     10464     10467
     10467     10468     10467     10469     10467     10470     10470     10471
     10470     10472     10473     10474     10473     10475     10475     10476
     10476     10477     10476     10478     10476     10479     10479     10480
     10479     10481     10479     10508     10481     10482     10481     10483
     10481     10484     10484     10485     10485     10486     10485     10506
     10485     10507     10486     10487     10487     10488     10487     10489
     10487     10490     10490     10491     10490     10492     10490     10493
     10493     10494     10493     10498     10493     10502     10494     10495
     10494     10496     10494     10497     10498     10499     10498     10500
     10498     10501     10502     10503     10502     10504     10502     10505
     10508     10509     10509     10510     10511     10512     10511     10513
     10511     10514     10514     10515     10514     10516     10514     10517
     10517     10518     10517     10519     10517     10520     10520     10521
     10520     10522     10520     10523     10523     10524     10523     10525
     10523     10526     10526     10527     10526     10528     10526     10529
     10529     10530     10529     10531     10529     10532     10532     10533
     10532     10534     10534     10535     10534     10536     10536     10537
     10536     10538     10536     10539     10539     10540     10539     10541
     10539     10542     10542     10543     10542     10544     10542     10545
     10545     10546     10545     10547     10545     10548     10548     10549
     10548     10550     10548     10551     10551     10552     10551     10553
     10551     10554     10554     10555     10554     10556     10554     10557
     10557     10558     10557     10559     10557     10560     10561     10562
     10561     10563     10561     10564     10561     10565     10565     10566
     10565     10567     10565     10568     10568     10569     10568     10570
     10568     10571     10571     10572     10571     10573     10571     10574
     10574     10575     10574     10576     10574     10577     10577     10578
     10577     10579     10577     10580     10580     10581     10580     10582
     10580     10583     10583     10584     10583     10585     10583     10586
     10586     10587     10586     10588     10586     10589     10589     10590
     10589     10591     10589     10592     10592     10593     10592     10594
     10592     10595     10595     10596     10595     10597     10595     10598
     10598     10599     10598     10600     10598     10601     10601     10602
     10601     10603     10601     10604     10604     10605     10604     10606
     10607     10608     10607     10609     10609     10610     10610     10611
     10610     10612     10610     10613     10613     10614     10613     10615
     10613     10642     10615     10616     10615     10617     10615     10618
     10618     10619     10619     10620     10619     10640     10619     10641
     10620     10621     10621     10622     10621     10623     10621     10624
     10624     10625     10624     10626     10624     10627     10627     10628
     10627     10632     10627     10636     10628     10629     10628     10630
     10628     10631     10632     10633     10632     10634     10632     10635
     10636     10637     10636     10638     10636     10639     10642     10643
     10643     10644     10645     10646     10645     10647     10645     10648
     10648     10649     10648     10650     10648     10651     10651     10652
     10651     10653     10651     10654     10654     10655     10654     10656
     10654     10657     10657     10658     10657     10659     10657     10660
     10660     10661     10660     10662     10660     10663     10663     10664
     10663     10665     10663     10666     10666     10667     10666     10668
     10668     10669     10668     10670     10670     10671     10670     10672
     10670     10673     10673     10674     10673     10675     10673     10676
     10676     10677     10676     10678     10676     10679     10679     10680
     10679     10681     10679     10682     10682     10683     10682     10684
     10682     10685     10685     10686     10685     10687     10685     10688
     10688     10689     10688     10690     10688     10691     10691     10692
     10691     10693     10691     10694     10695     10696     10695     10697
     10695     10698     10695     10699     10699     10700     10699     10701
     10699     10702     10702     10703     10702     10704     10702     10705
     10705     10706     10705     10707     10705     10708     10708     10709
     10708     10710     10708     10711     10711     10712     10711     10713
     10711     10714     10714     10715     10714     10716     10714     10717
     10717     10718     10717     10719     10717     10720     10720     10721
     10720     10722     10720     10723     10723     10724     10723     10725
     10723     10726     10726     10727     10726     10728     10726     10729
     10729     10730     10729     10731     10729     10732     10732     10733
     10732     10734     10732     10735     10735     10736     10735     10737
     10735     10738     10738     10739     10738     10740     10741     10742
     10741     10743     10743     10744     10744     10745     10744     10746
     10744     10747     10747     10748     10747     10749     10747     10776
     10749     10750     10749     10751     10749     10752     10752     10753
     10753     10754     10753     10774     10753     10775     10754     10755
     10755     10756     10755     10757     10755     10758     10758     10759
     10758     10760     10758     10761     10761     10762     10761     10766
     10761     10770     10762     10763     10762     10764     10762     10765
     10766     10767     10766     10768     10766     10769     10770     10771
     10770     10772     10770     10773     10776     10777     10777     10778
     10779     10780     10779     10781     10779     10782     10782     10783
     10782     10784     10782     10785     10785     10786     10785     10787
     10785     10788     10788     10789     10788     10790     10788     10791
     10791     10792     10791     10793     10791     10794     10794     10795
     10794     10796     10794     10797     10797     10798     10797     10799
     10797     10800     10800     10801     10800     10802     10802     10803
     10802     10804     10804     10805     10804     10806     10804     10807
     10807     10808     10807     10809     10807     10810     10810     10811
     10810     10812     10810     10813     10813     10814     10813     10815
     10813     10816     10816     10817     10816     10818     10816     10819
     10819     10820     10819     10821     10819     10822     10822     10823
     10822     10824     10822     10825     10825     10826     10825     10827
     10825     10828     10829     10830     10829     10831     10829     10832
     10829     10833     10833     10834     10833     10835     10833     10836
     10836     10837     10836     10838     10836     10839     10839     10840
     10839     10841     10839     10842     10842     10843     10842     10844
     10842     10845     10845     10846     10845     10847     10845     10848
     10848     10849     10848     10850     10848     10851     10851     10852
     10851     10853     10851     10854     10854     10855     10854     10856
     10854     10857     10857     10858     10857     10859     10857     10860
     10860     10861     10860     10862     10860     10863     10863     10864
     10863     10865     10863     10866     10866     10867     10866     10868
     10866     10869     10869     10870     10869     10871     10869     10872
     10872     10873     10872     10874     10875     10876     10875     10877
     10877     10878     10878     10879     10878     10880     10878     10881
     10881     10882     10881     10883     10881     10910     10883     10884
     10883     10885     10883     10886     10886     10887     10887     10888
     10887     10908     10887     10909     10888     10889     10889     10890
     10889     10891     10889     10892     10892     10893     10892     10894
     10892     10895     10895     10896     10895     10900     10895     10904
     10896     10897     10896     10898     10896     10899     10900     10901
     10900     10902     10900     10903     10904     10905     10904     10906
     10904     10907     10910     10911     10911     10912     10913     10914
     10913     10915     10913     10916     10916     10917     10916     10918
     10916     10919     10919     10920     10919     10921     10919     10922
     10922     10923     10922     10924     10922     10925     10925     10926
     10925     10927     10925     10928     10928     10929     10928     10930
     10928     10931     10931     10932     10931     10933     10931     10934
     10934     10935     10934     10936     10936     10937     10936     10938
     10938     10939     10938     10940     10938     10941     10941     10942
     10941     10943     10941     10944     10944     10945     10944     10946
     10944     10947     10947     10948     10947     10949     10947     10950
     10950     10951     10950     10952     10950     10953     10953     10954
     10953     10955     10953     10956     10956     10957     10956     10958
     10956     10959     10959     10960     10959     10961     10959     10962
     10963     10964     10963     10965     10963     10966     10963     10967
     10967     10968     10967     10969     10967     10970     10970     10971
     10970     10972     10970     10973     10973     10974     10973     10975
     10973     10976     10976     10977     10976     10978     10976     10979
     10979     10980     10979     10981     10979     10982     10982     10983
     10982     10984     10982     10985     10985     10986     10985     10987
     10985     10988     10988     10989     10988     10990     10988     10991
     10991     10992     10991     10993     10991     10994     10994     10995
     10994     10996     10994     10997     10997     10998     10997     10999
     10997     11000     11000     11001     11000     11002     11000     11003
     11003     11004     11003     11005     11003     11006     11006     11007
     11006     11008     11009     11010     11009     11011     11011     11012
     11012     11013     11012     11014     11012     11015     11015     11016
     11015     11017     11015     11044     11017     11018     11017     11019
     11017     11020     11020     11021     11021     11022     11021     11042
     11021     11043     11022     11023     11023     11024     11023     11025
     11023     11026     11026     11027     11026     11028     11026     11029
     11029     11030     11029     11034     11029     11038     11030     11031
     11030     11032     11030     11033     11034     11035     11034     11036
     11034     11037     11038     11039     11038     11040     11038     11041
     11044     11045     11045     11046     11047     11048     11047     11049
     11047     11050     11050     11051     11050     11052     11050     11053
     11053     11054     11053     11055     11053     11056     11056     11057
     11056     11058     11056     11059     11059     11060     11059     11061
     11059     11062     11062     11063     11062     11064     11062     11065
     11065     11066     11065     11067     11065     11068     11068     11069
     11068     11070     11070     11071     11070     11072     11072     11073
     11072     11074     11072     11075     11075     11076     11075     11077
     11075     11078     11078     11079     11078     11080     11078     11081
     11081     11082     11081     11083     11081     11084     11084     11085
     11084     11086     11084     11087     11087     11088     11087     11089
     11087     11090     11090     11091     11090     11092     11090     11093
     11093     11094     11093     11095     11093     11096     11097     11098
     11097     11099     11097     11100     11097     11101     11101     11102
     11101     11103     11101     11104     11104     11105     11104     11106
     11104     11107     11107     11108     11107     11109     11107     11110
     11110     11111     11110     11112     11110     11113     11113     11114
     11113     11115     11113     11116     11116     11117     11116     11118
     11116     11119     11119     11120     11119     11121     11119     11122
     11122     11123     11122     11124     11122     11125     11125     11126
     11125     11127     11125     11128     11128     11129     11128     11130
     11128     11131     11131     11132     11131     11133     11131     11134
     11134     11135     11134     11136     11134     11137     11137     11138
     11137     11139     11137     11140     11140     11141     11140     11142
     11143     11144     11143     11145     11145     11146     11146     11147
     11146     11148     11146     11149     11149     11150     11149     11151
     11149     11178     11151     11152     11151     11153     11151     11154
     11154     11155     11155     11156     11155     11176     11155     11177
     11156     11157     11157     11158     11157     11159     11157     11160
     11160     11161     11160     11162     11160     11163     11163     11164
     11163     11168     11163     11172     11164     11165     11164     11166
     11164     11167     11168     11169     11168     11170     11168     11171
     11172     11173     11172     11174     11172     11175     11178     11179
     11179     11180     11181     11182     11181     11183     11181     11184
     11184     11185     11184     11186     11184     11187     11187     11188
     11187     11189     11187     11190     11190     11191     11190     11192
     11190     11193     11193     11194     11193     11195     11193     11196
     11196     11197     11196     11198     11196     11199     11199     11200
     11199     11201     11199     11202     11202     11203     11202     11204
     11204     11205     11204     11206     11206     11207     11206     11208
     11206     11209     11209     11210     11209     11211     11209     11212
     11212     11213     11212     11214     11212     11215     11215     11216
     11215     11217     11215     11218     11218     11219     11218     11220
     11218     11221     11221     11222     11221     11223     11221     11224
     11224     11225     11224     11226     11224     11227     11227     11228
     11227     11229     11227     11230     11231     11232     11231     11233
     11231     11234     11231     11235     11235     11236     11235     11237
     11235     11238     11238     11239     11238     11240     11238     11241
     11241     11242     11241     11243     11241     11244     11244     11245
     11244     11246     11244     11247     11247     11248     11247     11249
     11247     11250     11250     11251     11250     11252     11250     11253
     11253     11254     11253     11255     11253     11256     11256     11257
     11256     11258     11256     11259     11259     11260     11259     11261
     11259     11262     11262     11263     11262     11264     11262     11265
     11265     11266     11265     11267     11265     11268     11268     11269
     11268     11270     11268     11271     11271     11272     11271     11273
     11271     11274     11274     11275     11274     11276     11277     11278
     11277     11279     11279     11280     11280     11281     11280     11282
     11280     11283     11283     11284     11283     11285     11283     11312
     11285     11286     11285     11287     11285     11288     11288     11289
     11289     11290     11289     11310     11289     11311     11290     11291
     11291     11292     11291     11293     11291     11294     11294     11295
     11294     11296     11294     11297     11297     11298     11297     11302
     11297     11306     11298     11299     11298     11300     11298     11301
     11302     11303     11302     11304     11302     11305     11306     11307
     11306     11308     11306     11309     11312     11313     11313     11314
     11315     11316     11315     11317     11315     11318     11318     11319
     11318     11320     11318     11321     11321     11322     11321     11323
     11321     11324     11324     11325     11324     11326     11324     11327
     11327     11328     11327     11329     11327     11330     11330     11331
     11330     11332     11330     11333     11333     11334     11333     11335
     11333     11336     11336     11337     11336     11338     11338     11339
     11338     11340     11340     11341     11340     11342     11340     11343
     11343     11344     11343     11345     11343     11346     11346     11347
     11346     11348     11346     11349     11349     11350     11349     11351
     11349     11352     11352     11353     11352     11354     11352     11355
     11355     11356     11355     11357     11355     11358     11358     11359
     11358     11360     11358     11361     11361     11362     11361     11363
     11361     11364     11365     11366     11365     11367     11365     11368
     11365     11369     11369     11370     11369     11371     11369     11372
     11372     11373     11372     11374     11372     11375     11375     11376
     11375     11377     11375     11378     11378     11379     11378     11380
     11378     11381     11381     11382     11381     11383     11381     11384
     11384     11385     11384     11386     11384     11387     11387     11388
     11387     11389     11387     11390     11390     11391     11390     11392
     11390     11393     11393     11394     11393     11395     11393     11396
     11396     11397     11396     11398     11396     11399     11399     11400
     11399     11401     11399     11402     11402     11403     11402     11404
     11402     11405     11405     11406     11405     11407     11405     11408
     11408     11409     11408     11410     11411     11412     11411     11413
     11413     11414     11414     11415     11414     11416     11414     11417
     11417     11418     11417     11419     11417     11446     11419     11420
     11419     11421     11419     11422     11422     11423     11423     11424
     11423     11444     11423     11445     11424     11425     11425     11426
     11425     11427     11425     11428     11428     11429     11428     11430
     11428     11431     11431     11432     11431     11436     11431     11440
     11432     11433     11432     11434     11432     11435     11436     11437
     11436     11438     11436     11439     11440     11441     11440     11442
     11440     11443     11446     11447     11447     11448     11449     11450
     11449     11451     11449     11452     11452     11453     11452     11454
     11452     11455     11455     11456     11455     11457     11455     11458
     11458     11459     11458     11460     11458     11461     11461     11462
     11461     11463     11461     11464     11464     11465     11464     11466
     11464     11467     11467     11468     11467     11469     11467     11470
     11470     11471     11470     11472     11472     11473     11472     11474
     11474     11475     11474     11476     11474     11477     11477     11478
     11477     11479     11477     11480     11480     11481     11480     11482
     11480     11483     11483     11484     11483     11485     11483     11486
     11486     11487     11486     11488     11486     11489     11489     11490
     11489     11491     11489     11492     11492     11493     11492     11494
     11492     11495     11495     11496     11495     11497     11495     11498
     11499     11500     11499     11501     11499     11502     11499     11503
     11503     11504     11503     11505     11503     11506     11506     11507
     11506     11508     11506     11509     11509     11510     11509     11511
     11509     11512     11512     11513     11512     11514     11512     11515
     11515     11516     11515     11517     11515     11518     11518     11519
     11518     11520     11518     11521     11521     11522     11521     11523
     11521     11524     11524     11525     11524     11526     11524     11527
     11527     11528     11527     11529     11527     11530     11530     11531
     11530     11532     11530     11533     11533     11534     11533     11535
     11533     11536     11536     11537     11536     11538     11536     11539
     11539     11540     11539     11541     11539     11542     11542     11543
     11542     11544     11545     11546     11545     11547     11547     11548
     11548     11549     11548     11550     11548     11551     11551     11552
     11551     11553     11551     11580     11553     11554     11553     11555
     11553     11556     11556     11557     11557     11558     11557     11578
     11557     11579     11558     11559     11559     11560     11559     11561
     11559     11562     11562     11563     11562     11564     11562     11565
     11565     11566     11565     11570     11565     11574     11566     11567
     11566     11568     11566     11569     11570     11571     11570     11572
     11570     11573     11574     11575     11574     11576     11574     11577
     11580     11581     11581     11582     11583     11584     11583     11585
     11583     11586     11586     11587     11586     11588     11586     11589
     11589     11590     11589     11591     11589     11592     11592     11593
     11592     11594     11592     11595     11595     11596     11595     11597
     11595     11598     11598     11599     11598     11600     11598     11601
     11601     11602     11601     11603     11601     11604     11604     11605
     11604     11606     11606     11607     11606     11608     11608     11609
     11608     11610     11608     11611     11611     11612     11611     11613
     11611     11614     11614     11615     11614     11616     11614     11617
     11617     11618     11617     11619     11617     11620     11620     11621
     11620     11622     11620     11623     11623     11624     11623     11625
     11623     11626     11626     11627     11626     11628     11626     11629
     11629     11630     11629     11631     11629     11632     11633     11634
     11633     11635     11633     11636     11633     11637     11637     11638
     11637     11639     11637     11640     11640     11641     11640     11642
     11640     11643     11643     11644     11643     11645     11643     11646
     11646     11647     11646     11648     11646     11649     11649     11650
     11649     11651     11649     11652     11652     11653     11652     11654
     11652     11655     11655     11656     11655     11657     11655     11658
     11658     11659     11658     11660     11658     11661     11661     11662
     11661     11663     11661     11664     11664     11665     11664     11666
     11664     11667     11667     11668     11667     11669     11667     11670
     11670     11671     11670     11672     11670     11673     11673     11674
     11673     11675     11673     11676     11676     11677     11676     11678
     11679     11680     11679     11681     11681     11682     11682     11683
     11682     11684     11682     11685     11685     11686     11685     11687
     11685     11714     11687     11688     11687     11689     11687     11690
     11690     11691     11691     11692     11691     11712     11691     11713
     11692     11693     11693     11694     11693     11695     11693     11696
     11696     11697     11696     11698     11696     11699     11699     11700
     11699     11704     11699     11708     11700     11701     11700     11702
     11700     11703     11704     11705     11704     11706     11704     11707
     11708     11709     11708     11710     11708     11711     11714     11715
     11715     11716     11717     11718     11717     11719     11717     11720
     11720     11721     11720     11722     11720     11723     11723     11724
     11723     11725     11723     11726     11726     11727     11726     11728
     11726     11729     11729     11730     11729     11731     11729     11732
     11732     11733     11732     11734     11732     11735     11735     11736
     11735     11737     11735     11738     11738     11739     11738     11740
     11740     11741     11740     11742     11742     11743     11742     11744
     11742     11745     11745     11746     11745     11747     11745     11748
     11748     11749     11748     11750     11748     11751     11751     11752
     11751     11753     11751     11754     11754     11755     11754     11756
     11754     11757     11757     11758     11757     11759     11757     11760
     11760     11761     11760     11762     11760     11763     11763     11764
     11763     11765     11763     11766     11767     11768     11767     11769
     11767     11770     11767     11771     11771     11772     11771     11773
     11771     11774     11774     11775     11774     11776     11774     11777
     11777     11778     11777     11779     11777     11780     11780     11781
     11780     11782     11780     11783     11783     11784     11783     11785
     11783     11786     11786     11787     11786     11788     11786     11789
     11789     11790     11789     11791     11789     11792     11792     11793
     11792     11794     11792     11795     11795     11796     11795     11797
     11795     11798     11798     11799     11798     11800     11798     11801
     11801     11802     11801     11803     11801     11804     11804     11805
     11804     11806     11804     11807     11807     11808     11807     11809
     11807     11810     11810     11811     11810     11812     11813     11814
     11813     11815     11815     11816     11816     11817     11816     11818
     11816     11819     11819     11820     11819     11821     11819     11848
     11821     11822     11821     11823     11821     11824     11824     11825
     11825     11826     11825     11846     11825     11847     11826     11827
     11827     11828     11827     11829     11827     11830     11830     11831
     11830     11832     11830     11833     11833     11834     11833     11838
     11833     11842     11834     11835     11834     11836     11834     11837
     11838     11839     11838     11840     11838     11841     11842     11843
     11842     11844     11842     11845     11848     11849     11849     11850
     11851     11852     11851     11853     11851     11854     11854     11855
     11854     11856     11854     11857     11857     11858     11857     11859
     11857     11860     11860     11861     11860     11862     11860     11863
     11863     11864     11863     11865     11863     11866     11866     11867
     11866     11868     11866     11869     11869     11870     11869     11871
     11869     11872     11872     11873     11872     11874     11874     11875
     11874     11876     11876     11877     11876     11878     11876     11879
     11879     11880     11879     11881     11879     11882     11882     11883
     11882     11884     11882     11885     11885     11886     11885     11887
     11885     11888     11888     11889     11888     11890     11888     11891
     11891     11892     11891     11893     11891     11894     11894     11895
     11894     11896     11894     11897     11897     11898     11897     11899
     11897     11900     11933     11932     11933     11934     11934     11932
     11936     11935     11936     11937     11937     11935     11939     11938
     11939     11940     11940     11938     11942     11941     11942     11943
     11943     11941     11945     11944     11945     11946     11946     11944
     11948     11947     11948     11949     11949     11947     11951     11950
     11951     11952     11952     11950     11954     11953     11954     11955
     11955     11953     11957     11956     11957     11958     11958     11956
     11960     11959     11960     11961     11961     11959     11963     11962
     11963     11964     11964     11962     11966     11965     11966     11967
     11967     11965     11969     11968     11969     11970     11970     11968
     11972     11971     11972     11973     11973     11971     11975     11974
     11975     11976     11976     11974     11978     11977     11978     11979
     11979     11977     11981     11980     11981     11982     11982     11980
     11984     11983     11984     11985     11985     11983     11987     11986
     11987     11988     11988     11986     11990     11989     11990     11991
     11991     11989     11993     11992     11993     11994     11994     11992
     11996     11995     11996     11997     11997     11995     11999     11998
     11999     12000     12000     11998     12002     12001     12002     12003
     12003     12001     12005     12004     12005     12006     12006     12004
     12008     12007     12008     12009     12009     12007     12011     12010
     12011     12012     12012     12010     12014     12013     12014     12015
     12015     12013     12017     12016     12017     12018     12018     12016
     12020     12019     12020     12021     12021     12019     12023     12022
     12023     12024     12024     12022     12026     12025     12026     12027
     12027     12025     12029     12028     12029     12030     12030     12028
     12032     12031     12032     12033     12033     12031     12035     12034
     12035     12036     12036     12034     12038     12037     12038     12039
     12039     12037     12041     12040     12041     12042     12042     12040
     12044     12043     12044     12045     12045     12043     12047     12046
     12047     12048     12048     12046     12050     12049     12050     12051
     12051     12049     12053     12052     12053     12054     12054     12052
     12056     12055     12056     12057     12057     12055     12059     12058
     12059     12060     12060     12058     12062     12061     12062     12063
     12063     12061     12065     12064     12065     12066     12066     12064
     12068     12067     12068     12069     12069     12067     12071     12070
     12071     12072     12072     12070     12074     12073     12074     12075
     12075     12073     12077     12076     12077     12078     12078     12076
     12080     12079     12080     12081     12081     12079     12083     12082
     12083     12084     12084     12082     12086     12085     12086     12087
     12087     12085     12089     12088     12089     12090     12090     12088
     12092     12091     12092     12093     12093     12091     12095     12094
     12095     12096     12096     12094     12098     12097     12098     12099
     12099     12097     12101     12100     12101     12102     12102     12100
     12104     12103     12104     12105     12105     12103     12107     12106
     12107     12108     12108     12106     12110     12109     12110     12111
     12111     12109     12113     12112     12113     12114     12114     12112
     12116     12115     12116     12117     12117     12115     12119     12118
     12119     12120     12120     12118     12122     12121     12122     12123
     12123     12121     12125     12124     12125     12126     12126     12124
     12128     12127     12128     12129     12129     12127     12131     12130
     12131     12132     12132     12130     12134     12133     12134     12135
     12135     12133     12137     12136     12137     12138     12138     12136
     12140     12139     12140     12141     12141     12139     12143     12142
     12143     12144     12144     12142     12146     12145     12146     12147
     12147     12145     12149     12148     12149     12150     12150     12148
     12152     12151     12152     12153     12153     12151     12155     12154
     12155     12156     12156     12154     12158     12157     12158     12159
     12159     12157     12161     12160     12161     12162     12162     12160
     12164     12163     12164     12165     12165     12163     12167     12166
     12167     12168     12168     12166     12170     12169     12170     12171
     12171     12169     12173     12172     12173     12174     12174     12172
     12176     12175     12176     12177     12177     12175     12179     12178
     12179     12180     12180     12178     12182     12181     12182     12183
     12183     12181     12185     12184     12185     12186     12186     12184
     12188     12187     12188     12189     12189     12187     12191     12190
     12191     12192     12192     12190     12194     12193     12194     12195
     12195     12193     12197     12196     12197     12198     12198     12196
     12200     12199     12200     12201     12201     12199     12203     12202
     12203     12204     12204     12202     12206     12205     12206     12207
     12207     12205     12209     12208     12209     12210     12210     12208
     12212     12211     12212     12213     12213     12211     12215     12214
     12215     12216     12216     12214     12218     12217     12218     12219
     12219     12217     12221     12220     12221     12222     12222     12220
     12224     12223     12224     12225     12225     12223     12227     12226
     12227     12228     12228     12226     12230     12229     12230     12231
     12231     12229     12233     12232     12233     12234     12234     12232
     12236     12235     12236     12237     12237     12235     12239     12238
     12239     12240     12240     12238     12242     12241     12242     12243
     12243     12241     12245     12244     12245     12246     12246     12244
     12248     12247     12248     12249     12249     12247     12251     12250
     12251     12252     12252     12250     12254     12253     12254     12255
     12255     12253     12257     12256     12257     12258     12258     12256
     12260     12259     12260     12261     12261     12259     12263     12262
     12263     12264     12264     12262     12266     12265     12266     12267
     12267     12265     12269     12268     12269     12270     12270     12268
     12272     12271     12272     12273     12273     12271     12275     12274
     12275     12276     12276     12274     12278     12277     12278     12279
     12279     12277     12281     12280     12281     12282     12282     12280
     12284     12283     12284     12285     12285     12283     12287     12286
     12287     12288     12288     12286     12290     12289     12290     12291
     12291     12289     12293     12292     12293     12294     12294     12292
     12296     12295     12296     12297     12297     12295     12299     12298
     12299     12300     12300     12298     12302     12301     12302     12303
     12303     12301     12305     12304     12305     12306     12306     12304
     12308     12307     12308     12309     12309     12307     12311     12310
     12311     12312     12312     12310     12314     12313     12314     12315
     12315     12313     12317     12316     12317     12318     12318     12316
     12320     12319     12320     12321     12321     12319     12323     12322
     12323     12324     12324     12322     12326     12325     12326     12327
     12327     12325     12329     12328     12329     12330     12330     12328
     12332     12331     12332     12333     12333     12331     12335     12334
     12335     12336     12336     12334     12338     12337     12338     12339
     12339     12337     12341     12340     12341     12342     12342     12340
     12344     12343     12344     12345     12345     12343     12347     12346
     12347     12348     12348     12346     12350     12349     12350     12351
     12351     12349     12353     12352     12353     12354     12354     12352
     12356     12355     12356     12357     12357     12355     12359     12358
     12359     12360     12360     12358     12362     12361     12362     12363
     12363     12361     12365     12364     12365     12366     12366     12364
     12368     12367     12368     12369     12369     12367     12371     12370
     12371     12372     12372     12370     12374     12373     12374     12375
     12375     12373     12377     12376     12377     12378     12378     12376
     12380     12379     12380     12381     12381     12379     12383     12382
     12383     12384     12384     12382     12386     12385     12386     12387
     12387     12385     12389     12388     12389     12390     12390     12388
     12392     12391     12392     12393     12393     12391     12395     12394
     12395     12396     12396     12394     12398     12397     12398     12399
     12399     12397     12401     12400     12401     12402     12402     12400
     12404     12403     12404     12405     12405     12403     12407     12406
     12407     12408     12408     12406     12410     12409     12410     12411
     12411     12409     12413     12412     12413     12414     12414     12412
     12416     12415     12416     12417     12417     12415     12419     12418
     12419     12420     12420     12418     12422     12421     12422     12423
     12423     12421     12425     12424     12425     12426     12426     12424
     12428     12427     12428     12429     12429     12427     12431     12430
     12431     12432     12432     12430     12434     12433     12434     12435
     12435     12433     12437     12436     12437     12438     12438     12436
     12440     12439     12440     12441     12441     12439     12443     12442
     12443     12444     12444     12442     12446     12445     12446     12447
     12447     12445     12449     12448     12449     12450     12450     12448
     12452     12451     12452     12453     12453     12451     12455     12454
     12455     12456     12456     12454     12458     12457     12458     12459
     12459     12457     12461     12460     12461     12462     12462     12460
     12464     12463     12464     12465     12465     12463     12467     12466
     12467     12468     12468     12466     12470     12469     12470     12471
     12471     12469     12473     12472     12473     12474     12474     12472
     12476     12475     12476     12477     12477     12475     12479     12478
     12479     12480     12480     12478     12482     12481     12482     12483
     12483     12481     12485     12484     12485     12486     12486     12484
     12488     12487     12488     12489     12489     12487     12491     12490
     12491     12492     12492     12490     12494     12493     12494     12495
     12495     12493     12497     12496     12497     12498     12498     12496
     12500     12499     12500     12501     12501     12499     12503     12502
     12503     12504     12504     12502     12506     12505     12506     12507
     12507     12505     12509     12508     12509     12510     12510     12508
     12512     12511     12512     12513     12513     12511     12515     12514
     12515     12516     12516     12514     12518     12517     12518     12519
     12519     12517     12521     12520     12521     12522     12522     12520
     12524     12523     12524     12525     12525     12523     12527     12526
     12527     12528     12528     12526     12530     12529     12530     12531
     12531     12529     12533     12532     12533     12534     12534     12532
     12536     12535     12536     12537     12537     12535     12539     12538
     12539     12540     12540     12538     12542     12541     12542     12543
     12543     12541     12545     12544     12545     12546     12546     12544
     12548     12547     12548     12549     12549     12547     12551     12550
     12551     12552     12552     12550     12554     12553     12554     12555
     12555     12553     12557     12556     12557     12558     12558     12556
     12560     12559     12560     12561     12561     12559     12563     12562
     12563     12564     12564     12562     12566     12565     12566     12567
     12567     12565     12569     12568     12569     12570     12570     12568
     12572     12571     12572     12573     12573     12571     12575     12574
     12575     12576     12576     12574     12578     12577     12578     12579
     12579     12577     12581     12580     12581     12582     12582     12580
     12584     12583     12584     12585     12585     12583     12587     12586
     12587     12588     12588     12586     12590     12589     12590     12591
     12591     12589     12593     12592     12593     12594     12594     12592
     12596     12595     12596     12597     12597     12595     12599     12598
     12599     12600     12600     12598     12602     12601     12602     12603
     12603     12601     12605     12604     12605     12606     12606     12604
     12608     12607     12608     12609     12609     12607     12611     12610
     12611     12612     12612     12610     12614     12613     12614     12615
     12615     12613     12617     12616     12617     12618     12618     12616
     12620     12619     12620     12621     12621     12619     12623     12622
     12623     12624     12624     12622     12626     12625     12626     12627
     12627     12625     12629     12628     12629     12630     12630     12628
     12632     12631     12632     12633     12633     12631     12635     12634
     12635     12636     12636     12634     12638     12637     12638     12639
     12639     12637     12641     12640     12641     12642     12642     12640
     12644     12643     12644     12645     12645     12643     12647     12646
     12647     12648     12648     12646     12650     12649     12650     12651
     12651     12649     12653     12652     12653     12654     12654     12652
     12656     12655     12656     12657     12657     12655     12659     12658
     12659     12660     12660     12658     12662     12661     12662     12663
     12663     12661     12665     12664     12665     12666     12666     12664
     12668     12667     12668     12669     12669     12667     12671     12670
     12671     12672     12672     12670     12674     12673     12674     12675
     12675     12673     12677     12676     12677     12678     12678     12676
     12680     12679     12680     12681     12681     12679     12683     12682
     12683     12684     12684     12682     12686     12685     12686     12687
     12687     12685     12689     12688     12689     12690     12690     12688
     12692     12691     12692     12693     12693     12691     12695     12694
     12695     12696     12696     12694     12698     12697     12698     12699
     12699     12697     12701     12700     12701     12702     12702     12700
     12704     12703     12704     12705     12705     12703     12707     12706
     12707     12708     12708     12706     12710     12709     12710     12711
     12711     12709     12713     12712     12713     12714     12714     12712
     12716     12715     12716     12717     12717     12715     12719     12718
     12719     12720     12720     12718     12722     12721     12722     12723
     12723     12721     12725     12724     12725     12726     12726     12724
     12728     12727     12728     12729     12729     12727     12731     12730
     12731     12732     12732     12730     12734     12733     12734     12735
     12735     12733     12737     12736     12737     12738     12738     12736
     12740     12739     12740     12741     12741     12739     12743     12742
     12743     12744     12744     12742     12746     12745     12746     12747
     12747     12745     12749     12748     12749     12750     12750     12748
     12752     12751     12752     12753     12753     12751     12755     12754
     12755     12756     12756     12754     12758     12757     12758     12759
     12759     12757     12761     12760     12761     12762     12762     12760
     12764     12763     12764     12765     12765     12763     12767     12766
     12767     12768     12768     12766     12770     12769     12770     12771
     12771     12769     12773     12772     12773     12774     12774     12772
     12776     12775     12776     12777     12777     12775     12779     12778
     12779     12780     12780     12778     12782     12781     12782     12783
     12783     12781     12785     12784     12785     12786     12786     12784
     12788     12787     12788     12789     12789     12787     12791     12790
     12791     12792     12792     12790     12794     12793     12794     12795
     12795     12793     12797     12796     12797     12798     12798     12796
     12800     12799     12800     12801     12801     12799     12803     12802
     12803     12804     12804     12802     12806     12805     12806     12807
     12807     12805     12809     12808     12809     12810     12810     12808
     12812     12811     12812     12813     12813     12811     12815     12814
     12815     12816     12816     12814     12818     12817     12818     12819
     12819     12817     12821     12820     12821     12822     12822     12820
     12824     12823     12824     12825     12825     12823     12827     12826
     12827     12828     12828     12826     12830     12829     12830     12831
     12831     12829     12833     12832     12833     12834     12834     12832
     12836     12835     12836     12837     12837     12835     12839     12838
     12839     12840     12840     12838     12842     12841     12842     12843
     12843     12841     12845     12844     12845     12846     12846     12844
     12848     12847     12848     12849     12849     12847     12851     12850
     12851     12852     12852     12850     12854     12853     12854     12855
     12855     12853     12857     12856     12857     12858     12858     12856
     12860     12859     12860     12861     12861     12859     12863     12862
     12863     12864     12864     12862     12866     12865     12866     12867
     12867     12865     12869     12868     12869     12870     12870     12868
     12872     12871     12872     12873     12873     12871     12875     12874
     12875     12876     12876     12874     12878     12877     12878     12879
     12879     12877     12881     12880     12881     12882     12882     12880
     12884     12883     12884     12885     12885     12883     12887     12886
     12887     12888     12888     12886     12890     12889     12890     12891
     12891     12889     12893     12892     12893     12894     12894     12892
     12896     12895     12896     12897     12897     12895     12899     12898
     12899     12900     12900     12898     12902     12901     12902     12903
     12903     12901     12905     12904     12905     12906     12906     12904
     12908     12907     12908     12909     12909     12907     12911     12910
     12911     12912     12912     12910     12914     12913     12914     12915
     12915     12913     12917     12916     12917     12918     12918     12916
     12920     12919     12920     12921     12921     12919     12923     12922
     12923     12924     12924     12922     12926     12925     12926     12927
     12927     12925     12929     12928     12929     12930     12930     12928
     12932     12931     12932     12933     12933     12931     12935     12934
     12935     12936     12936     12934     12938     12937     12938     12939
     12939     12937     12941     12940     12941     12942     12942     12940
     12944     12943     12944     12945     12945     12943     12947     12946
     12947     12948     12948     12946     12950     12949     12950     12951
     12951     12949     12953     12952     12953     12954     12954     12952
     12956     12955     12956     12957     12957     12955     12959     12958
     12959     12960     12960     12958     12962     12961     12962     12963
     12963     12961     12965     12964     12965     12966     12966     12964
     12968     12967     12968     12969     12969     12967     12971     12970
     12971     12972     12972     12970     12974     12973     12974     12975
     12975     12973     12977     12976     12977     12978     12978     12976
     12980     12979     12980     12981     12981     12979     12983     12982
     12983     12984     12984     12982     12986     12985     12986     12987
     12987     12985     12989     12988     12989     12990     12990     12988
     12992     12991     12992     12993     12993     12991     12995     12994
     12995     12996     12996     12994     12998     12997     12998     12999
     12999     12997     13001     13000     13001     13002     13002     13000
     13004     13003     13004     13005     13005     13003     13007     13006
     13007     13008     13008     13006     13010     13009     13010     13011
     13011     13009     13013     13012     13013     13014     13014     13012
     13016     13015     13016     13017     13017     13015     13019     13018
     13019     13020     13020     13018     13022     13021     13022     13023
     13023     13021     13025     13024     13025     13026     13026     13024
     13028     13027     13028     13029     13029     13027     13031     13030
     13031     13032     13032     13030     13034     13033     13034     13035
     13035     13033     13037     13036     13037     13038     13038     13036
     13040     13039     13040     13041     13041     13039     13043     13042
     13043     13044     13044     13042     13046     13045     13046     13047
     13047     13045     13049     13048     13049     13050     13050     13048
     13052     13051     13052     13053     13053     13051     13055     13054
     13055     13056     13056     13054     13058     13057     13058     13059
     13059     13057     13061     13060     13061     13062     13062     13060
     13064     13063     13064     13065     13065     13063     13067     13066
     13067     13068     13068     13066     13070     13069     13070     13071
     13071     13069     13073     13072     13073     13074     13074     13072
     13076     13075     13076     13077     13077     13075     13079     13078
     13079     13080     13080     13078     13082     13081     13082     13083
     13083     13081     13085     13084     13085     13086     13086     13084
     13088     13087     13088     13089     13089     13087     13091     13090
     13091     13092     13092     13090     13094     13093     13094     13095
     13095     13093     13097     13096     13097     13098     13098     13096
     13100     13099     13100     13101     13101     13099     13103     13102
     13103     13104     13104     13102     13106     13105     13106     13107
     13107     13105     13109     13108     13109     13110     13110     13108
     13112     13111     13112     13113     13113     13111     13115     13114
     13115     13116     13116     13114     13118     13117     13118     13119
     13119     13117     13121     13120     13121     13122     13122     13120
     13124     13123     13124     13125     13125     13123     13127     13126
     13127     13128     13128     13126     13130     13129     13130     13131
     13131     13129     13133     13132     13133     13134     13134     13132
     13136     13135     13136     13137     13137     13135     13139     13138
     13139     13140     13140     13138     13142     13141     13142     13143
     13143     13141     13145     13144     13145     13146     13146     13144
     13148     13147     13148     13149     13149     13147     13151     13150
     13151     13152     13152     13150     13154     13153     13154     13155
     13155     13153     13157     13156     13157     13158     13158     13156
     13160     13159     13160     13161     13161     13159     13163     13162
     13163     13164     13164     13162     13166     13165     13166     13167
     13167     13165     13169     13168     13169     13170     13170     13168
     13172     13171     13172     13173     13173     13171     13175     13174
     13175     13176     13176     13174     13178     13177     13178     13179
     13179     13177     13181     13180     13181     13182     13182     13180
     13184     13183     13184     13185     13185     13183     13187     13186
     13187     13188     13188     13186     13190     13189     13190     13191
     13191     13189     13193     13192     13193     13194     13194     13192
     13196     13195     13196     13197     13197     13195     13199     13198
     13199     13200     13200     13198     13202     13201     13202     13203
     13203     13201     13205     13204     13205     13206     13206     13204
     13208     13207     13208     13209     13209     13207     13211     13210
     13211     13212     13212     13210     13214     13213     13214     13215
     13215     13213     13217     13216     13217     13218     13218     13216
     13220     13219     13220     13221     13221     13219     13223     13222
     13223     13224     13224     13222     13226     13225     13226     13227
     13227     13225     13229     13228     13229     13230     13230     13228
     13232     13231     13232     13233     13233     13231     13235     13234
     13235     13236     13236     13234     13238     13237     13238     13239
     13239     13237     13241     13240     13241     13242     13242     13240
     13244     13243     13244     13245     13245     13243     13247     13246
     13247     13248     13248     13246     13250     13249     13250     13251
     13251     13249     13253     13252     13253     13254     13254     13252
     13256     13255     13256     13257     13257     13255     13259     13258
     13259     13260     13260     13258     13262     13261     13262     13263
     13263     13261     13265     13264     13265     13266     13266     13264
     13268     13267     13268     13269     13269     13267     13271     13270
     13271     13272     13272     13270     13274     13273     13274     13275
     13275     13273     13277     13276     13277     13278     13278     13276
     13280     13279     13280     13281     13281     13279     13283     13282
     13283     13284     13284     13282     13286     13285     13286     13287
     13287     13285     13289     13288     13289     13290     13290     13288
     13292     13291     13292     13293     13293     13291     13295     13294
     13295     13296     13296     13294     13298     13297     13298     13299
     13299     13297     13301     13300     13301     13302     13302     13300
     13304     13303     13304     13305     13305     13303     13307     13306
     13307     13308     13308     13306     13310     13309     13310     13311
     13311     13309     13313     13312     13313     13314     13314     13312
     13316     13315     13316     13317     13317     13315     13319     13318
     13319     13320     13320     13318     13322     13321     13322     13323
     13323     13321     13325     13324     13325     13326     13326     13324
     13328     13327     13328     13329     13329     13327     13331     13330
     13331     13332     13332     13330     13334     13333     13334     13335
     13335     13333     13337     13336     13337     13338     13338     13336
     13340     13339     13340     13341     13341     13339     13343     13342
     13343     13344     13344     13342     13346     13345     13346     13347
     13347     13345     13349     13348     13349     13350     13350     13348
     13352     13351     13352     13353     13353     13351     13355     13354
     13355     13356     13356     13354     13358     13357     13358     13359
     13359     13357     13361     13360     13361     13362     13362     13360
     13364     13363     13364     13365     13365     13363     13367     13366
     13367     13368     13368     13366     13370     13369     13370     13371
     13371     13369     13373     13372     13373     13374     13374     13372
     13376     13375     13376     13377     13377     13375     13379     13378
     13379     13380     13380     13378     13382     13381     13382     13383
     13383     13381     13385     13384     13385     13386     13386     13384
     13388     13387     13388     13389     13389     13387     13391     13390
     13391     13392     13392     13390     13394     13393     13394     13395
     13395     13393     13397     13396     13397     13398     13398     13396
     13400     13399     13400     13401     13401     13399     13403     13402
     13403     13404     13404     13402     13406     13405     13406     13407
     13407     13405     13409     13408     13409     13410     13410     13408
     13412     13411     13412     13413     13413     13411     13415     13414
     13415     13416     13416     13414     13418     13417     13418     13419
     13419     13417     13421     13420     13421     13422     13422     13420
     13424     13423     13424     13425     13425     13423     13427     13426
     13427     13428     13428     13426     13430     13429     13430     13431
     13431     13429     13433     13432     13433     13434     13434     13432
     13436     13435     13436     13437     13437     13435     13439     13438
     13439     13440     13440     13438     13442     13441     13442     13443
     13443     13441     13445     13444     13445     13446     13446     13444
     13448     13447     13448     13449     13449     13447     13451     13450
     13451     13452     13452     13450     13454     13453     13454     13455
     13455     13453     13457     13456     13457     13458     13458     13456
     13460     13459     13460     13461     13461     13459     13463     13462
     13463     13464     13464     13462     13466     13465     13466     13467
     13467     13465     13469     13468     13469     13470     13470     13468
     13472     13471     13472     13473     13473     13471     13475     13474
     13475     13476     13476     13474     13478     13477     13478     13479
     13479     13477     13481     13480     13481     13482     13482     13480
     13484     13483     13484     13485     13485     13483     13487     13486
     13487     13488     13488     13486     13490     13489     13490     13491
     13491     13489     13493     13492     13493     13494     13494     13492
     13496     13495     13496     13497     13497     13495     13499     13498
     13499     13500     13500     13498     13502     13501     13502     13503
     13503     13501     13505     13504     13505     13506     13506     13504
     13508     13507     13508     13509     13509     13507     13511     13510
     13511     13512     13512     13510     13514     13513     13514     13515
     13515     13513     13517     13516     13517     13518     13518     13516
     13520     13519     13520     13521     13521     13519     13523     13522
     13523     13524     13524     13522     13526     13525     13526     13527
     13527     13525     13529     13528     13529     13530     13530     13528
     13532     13531     13532     13533     13533     13531     13535     13534
     13535     13536     13536     13534     13538     13537     13538     13539
     13539     13537     13541     13540     13541     13542     13542     13540
     13544     13543     13544     13545     13545     13543     13547     13546
     13547     13548     13548     13546     13550     13549     13550     13551
     13551     13549     13553     13552     13553     13554     13554     13552
     13556     13555     13556     13557     13557     13555     13559     13558
     13559     13560     13560     13558     13562     13561     13562     13563
     13563     13561     13565     13564     13565     13566     13566     13564
     13568     13567     13568     13569     13569     13567     13571     13570
     13571     13572     13572     13570     13574     13573     13574     13575
     13575     13573     13577     13576     13577     13578     13578     13576
     13580     13579     13580     13581     13581     13579     13583     13582
     13583     13584     13584     13582     13586     13585     13586     13587
     13587     13585     13589     13588     13589     13590     13590     13588
     13592     13591     13592     13593     13593     13591     13595     13594
     13595     13596     13596     13594     13598     13597     13598     13599
     13599     13597     13601     13600     13601     13602     13602     13600
     13604     13603     13604     13605     13605     13603     13607     13606
     13607     13608     13608     13606     13610     13609     13610     13611
     13611     13609     13613     13612     13613     13614     13614     13612
     13616     13615     13616     13617     13617     13615     13619     13618
     13619     13620     13620     13618     13622     13621     13622     13623
     13623     13621     13625     13624     13625     13626     13626     13624
     13628     13627     13628     13629     13629     13627     13631     13630
     13631     13632     13632     13630     13634     13633     13634     13635
     13635     13633     13637     13636     13637     13638     13638     13636
     13640     13639     13640     13641     13641     13639     13643     13642
     13643     13644     13644     13642     13646     13645     13646     13647
     13647     13645     13649     13648     13649     13650     13650     13648
     13652     13651     13652     13653     13653     13651     13655     13654
     13655     13656     13656     13654     13658     13657     13658     13659
     13659     13657     13661     13660     13661     13662     13662     13660
     13664     13663     13664     13665     13665     13663     13667     13666
     13667     13668     13668     13666     13670     13669     13670     13671
     13671     13669     13673     13672     13673     13674     13674     13672
     13676     13675     13676     13677     13677     13675     13679     13678
     13679     13680     13680     13678     13682     13681     13682     13683
     13683     13681     13685     13684     13685     13686     13686     13684
     13688     13687     13688     13689     13689     13687     13691     13690
     13691     13692     13692     13690     13694     13693     13694     13695
     13695     13693     13697     13696     13697     13698     13698     13696
     13700     13699     13700     13701     13701     13699     13703     13702
     13703     13704     13704     13702     13706     13705     13706     13707
     13707     13705     13709     13708     13709     13710     13710     13708
     13712     13711     13712     13713     13713     13711     13715     13714
     13715     13716     13716     13714     13718     13717     13718     13719
     13719     13717     13721     13720     13721     13722     13722     13720
     13724     13723     13724     13725     13725     13723     13727     13726
     13727     13728     13728     13726     13730     13729     13730     13731
     13731     13729     13733     13732     13733     13734     13734     13732
     13736     13735     13736     13737     13737     13735     13739     13738
     13739     13740     13740     13738     13742     13741     13742     13743
     13743     13741     13745     13744     13745     13746     13746     13744
     13748     13747     13748     13749     13749     13747     13751     13750
     13751     13752     13752     13750     13754     13753     13754     13755
     13755     13753     13757     13756     13757     13758     13758     13756
     13760     13759     13760     13761     13761     13759     13763     13762
     13763     13764     13764     13762     13766     13765     13766     13767
     13767     13765     13769     13768     13769     13770     13770     13768
     13772     13771     13772     13773     13773     13771     13775     13774
     13775     13776     13776     13774     13778     13777     13778     13779
     13779     13777     13781     13780     13781     13782     13782     13780
     13784     13783     13784     13785     13785     13783     13787     13786
     13787     13788     13788     13786     13790     13789     13790     13791
     13791     13789     13793     13792     13793     13794     13794     13792
     13796     13795     13796     13797     13797     13795     13799     13798
     13799     13800     13800     13798     13802     13801     13802     13803
     13803     13801     13805     13804     13805     13806     13806     13804
     13808     13807     13808     13809     13809     13807     13811     13810
     13811     13812     13812     13810     13814     13813     13814     13815
     13815     13813     13817     13816     13817     13818     13818     13816
     13820     13819     13820     13821     13821     13819     13823     13822
     13823     13824     13824     13822     13826     13825     13826     13827
     13827     13825     13829     13828     13829     13830     13830     13828
     13832     13831     13832     13833     13833     13831     13835     13834
     13835     13836     13836     13834     13838     13837     13838     13839
     13839     13837     13841     13840     13841     13842     13842     13840
     13844     13843     13844     13845     13845     13843     13847     13846
     13847     13848     13848     13846     13850     13849     13850     13851
     13851     13849     13853     13852     13853     13854     13854     13852
     13856     13855     13856     13857     13857     13855     13859     13858
     13859     13860     13860     13858     13862     13861     13862     13863
     13863     13861     13865     13864     13865     13866     13866     13864
     13868     13867     13868     13869     13869     13867     13871     13870
     13871     13872     13872     13870     13874     13873     13874     13875
     13875     13873     13877     13876     13877     13878     13878     13876
     13880     13879     13880     13881     13881     13879     13883     13882
     13883     13884     13884     13882     13886     13885     13886     13887
     13887     13885     13889     13888     13889     13890     13890     13888
     13892     13891     13892     13893     13893     13891     13895     13894
     13895     13896     13896     13894     13898     13897     13898     13899
     13899     13897     13901     13900     13901     13902     13902     13900
     13904     13903     13904     13905     13905     13903     13907     13906
     13907     13908     13908     13906     13910     13909     13910     13911
     13911     13909     13913     13912     13913     13914     13914     13912
     13916     13915     13916     13917     13917     13915     13919     13918
     13919     13920     13920     13918     13922     13921     13922     13923
     13923     13921     13925     13924     13925     13926     13926     13924
     13928     13927     13928     13929     13929     13927     13931     13930
     13931     13932     13932     13930     13934     13933     13934     13935
     13935     13933     13937     13936     13937     13938     13938     13936
     13940     13939     13940     13941     13941     13939     13943     13942
     13943     13944     13944     13942     13946     13945     13946     13947
     13947     13945     13949     13948     13949     13950     13950     13948
     13952     13951     13952     13953     13953     13951     13955     13954
     13955     13956     13956     13954     13958     13957     13958     13959
     13959     13957     13961     13960     13961     13962     13962     13960
     13964     13963     13964     13965     13965     13963     13967     13966
     13967     13968     13968     13966     13970     13969     13970     13971
     13971     13969     13973     13972     13973     13974     13974     13972
     13976     13975     13976     13977     13977     13975     13979     13978
     13979     13980     13980     13978     13982     13981     13982     13983
     13983     13981     13985     13984     13985     13986     13986     13984
     13988     13987     13988     13989     13989     13987     13991     13990
     13991     13992     13992     13990     13994     13993     13994     13995
     13995     13993     13997     13996     13997     13998     13998     13996
     14000     13999     14000     14001     14001     13999     14003     14002
     14003     14004     14004     14002     14006     14005     14006     14007
     14007     14005     14009     14008     14009     14010     14010     14008
     14012     14011     14012     14013     14013     14011     14015     14014
     14015     14016     14016     14014     14018     14017     14018     14019
     14019     14017     14021     14020     14021     14022     14022     14020
     14024     14023     14024     14025     14025     14023     14027     14026
     14027     14028     14028     14026     14030     14029     14030     14031
     14031     14029     14033     14032     14033     14034     14034     14032
     14036     14035     14036     14037     14037     14035     14039     14038
     14039     14040     14040     14038     14042     14041     14042     14043
     14043     14041     14045     14044     14045     14046     14046     14044
     14048     14047     14048     14049     14049     14047     14051     14050
     14051     14052     14052     14050     14054     14053     14054     14055
     14055     14053     14057     14056     14057     14058     14058     14056
     14060     14059     14060     14061     14061     14059     14063     14062
     14063     14064     14064     14062     14066     14065     14066     14067
     14067     14065     14069     14068     14069     14070     14070     14068
     14072     14071     14072     14073     14073     14071     14075     14074
     14075     14076     14076     14074     14078     14077     14078     14079
     14079     14077     14081     14080     14081     14082     14082     14080
     14084     14083     14084     14085     14085     14083     14087     14086
     14087     14088     14088     14086     14090     14089     14090     14091
     14091     14089     14093     14092     14093     14094     14094     14092
     14096     14095     14096     14097     14097     14095     14099     14098
     14099     14100     14100     14098     14102     14101     14102     14103
     14103     14101     14105     14104     14105     14106     14106     14104
     14108     14107     14108     14109     14109     14107     14111     14110
     14111     14112     14112     14110     14114     14113     14114     14115
     14115     14113     14117     14116     14117     14118     14118     14116
     14120     14119     14120     14121     14121     14119     14123     14122
     14123     14124     14124     14122     14126     14125     14126     14127
     14127     14125     14129     14128     14129     14130     14130     14128
     14132     14131     14132     14133     14133     14131     14135     14134
     14135     14136     14136     14134     14138     14137     14138     14139
     14139     14137     14141     14140     14141     14142     14142     14140
     14144     14143     14144     14145     14145     14143     14147     14146
     14147     14148     14148     14146     14150     14149     14150     14151
     14151     14149     14153     14152     14153     14154     14154     14152
     14156     14155     14156     14157     14157     14155     14159     14158
     14159     14160     14160     14158     14162     14161     14162     14163
     14163     14161     14165     14164     14165     14166     14166     14164
     14168     14167     14168     14169     14169     14167     14171     14170
     14171     14172     14172     14170     14174     14173     14174     14175
     14175     14173     14177     14176     14177     14178     14178     14176
     14180     14179     14180     14181     14181     14179     14183     14182
     14183     14184     14184     14182     14186     14185     14186     14187
     14187     14185     14189     14188     14189     14190     14190     14188
     14192     14191     14192     14193     14193     14191     14195     14194
     14195     14196     14196     14194     14198     14197     14198     14199
     14199     14197     14201     14200     14201     14202     14202     14200
     14204     14203     14204     14205     14205     14203     14207     14206
     14207     14208     14208     14206     14210     14209     14210     14211
     14211     14209     14213     14212     14213     14214     14214     14212
     14216     14215     14216     14217     14217     14215     14219     14218
     14219     14220     14220     14218     14222     14221     14222     14223
     14223     14221     14225     14224     14225     14226     14226     14224
     14228     14227     14228     14229     14229     14227     14231     14230
     14231     14232     14232     14230     14234     14233     14234     14235
     14235     14233     14237     14236     14237     14238     14238     14236
     14240     14239     14240     14241     14241     14239     14243     14242
     14243     14244     14244     14242     14246     14245     14246     14247
     14247     14245     14249     14248     14249     14250     14250     14248
     14252     14251     14252     14253     14253     14251     14255     14254
     14255     14256     14256     14254     14258     14257     14258     14259
     14259     14257     14261     14260     14261     14262     14262     14260
     14264     14263     14264     14265     14265     14263     14267     14266
     14267     14268     14268     14266     14270     14269     14270     14271
     14271     14269     14273     14272     14273     14274     14274     14272
     14276     14275     14276     14277     14277     14275     14279     14278
     14279     14280     14280     14278     14282     14281     14282     14283
     14283     14281     14285     14284     14285     14286     14286     14284
     14288     14287     14288     14289     14289     14287     14291     14290
     14291     14292     14292     14290     14294     14293     14294     14295
     14295     14293     14297     14296     14297     14298     14298     14296
     14300     14299     14300     14301     14301     14299     14303     14302
     14303     14304     14304     14302     14306     14305     14306     14307
     14307     14305     14309     14308     14309     14310     14310     14308
     14312     14311     14312     14313     14313     14311     14315     14314
     14315     14316     14316     14314     14318     14317     14318     14319
     14319     14317     14321     14320     14321     14322     14322     14320
     14324     14323     14324     14325     14325     14323     14327     14326
     14327     14328     14328     14326     14330     14329     14330     14331
     14331     14329     14333     14332     14333     14334     14334     14332
     14336     14335     14336     14337     14337     14335     14339     14338
     14339     14340     14340     14338     14342     14341     14342     14343
     14343     14341     14345     14344     14345     14346     14346     14344
     14348     14347     14348     14349     14349     14347     14351     14350
     14351     14352     14352     14350     14354     14353     14354     14355
     14355     14353     14357     14356     14357     14358     14358     14356
     14360     14359     14360     14361     14361     14359     14363     14362
     14363     14364     14364     14362     14366     14365     14366     14367
     14367     14365     14369     14368     14369     14370     14370     14368
     14372     14371     14372     14373     14373     14371     14375     14374
     14375     14376     14376     14374     14378     14377     14378     14379
     14379     14377     14381     14380     14381     14382     14382     14380
     14384     14383     14384     14385     14385     14383     14387     14386
     14387     14388     14388     14386     14390     14389     14390     14391
     14391     14389     14393     14392     14393     14394     14394     14392
     14396     14395     14396     14397     14397     14395     14399     14398
     14399     14400     14400     14398     14402     14401     14402     14403
     14403     14401     14405     14404     14405     14406     14406     14404
     14408     14407     14408     14409     14409     14407     14411     14410
     14411     14412     14412     14410     14414     14413     14414     14415
     14415     14413     14417     14416     14417     14418     14418     14416
     14420     14419     14420     14421     14421     14419     14423     14422
     14423     14424     14424     14422     14426     14425     14426     14427
     14427     14425     14429     14428     14429     14430     14430     14428
     14432     14431     14432     14433     14433     14431     14435     14434
     14435     14436     14436     14434     14438     14437     14438     14439
     14439     14437     14441     14440     14441     14442     14442     14440
     14444     14443     14444     14445     14445     14443     14447     14446
     14447     14448     14448     14446     14450     14449     14450     14451
     14451     14449     14453     14452     14453     14454     14454     14452
     14456     14455     14456     14457     14457     14455     14459     14458
     14459     14460     14460     14458     14462     14461     14462     14463
     14463     14461     14465     14464     14465     14466     14466     14464
     14468     14467     14468     14469     14469     14467     14471     14470
     14471     14472     14472     14470     14474     14473     14474     14475
     14475     14473     14477     14476     14477     14478     14478     14476
     14480     14479     14480     14481     14481     14479     14483     14482
     14483     14484     14484     14482     14486     14485     14486     14487
     14487     14485     14489     14488     14489     14490     14490     14488
     14492     14491     14492     14493     14493     14491     14495     14494
     14495     14496     14496     14494     14498     14497     14498     14499
     14499     14497     14501     14500     14501     14502     14502     14500
     14504     14503     14504     14505     14505     14503     14507     14506
     14507     14508     14508     14506     14510     14509     14510     14511
     14511     14509     14513     14512     14513     14514     14514     14512
     14516     14515     14516     14517     14517     14515     14519     14518
     14519     14520     14520     14518     14522     14521     14522     14523
     14523     14521     14525     14524     14525     14526     14526     14524
     14528     14527     14528     14529     14529     14527     14531     14530
     14531     14532     14532     14530     14534     14533     14534     14535
     14535     14533     14537     14536     14537     14538     14538     14536
     14540     14539     14540     14541     14541     14539     14543     14542
     14543     14544     14544     14542     14546     14545     14546     14547
     14547     14545     14549     14548     14549     14550     14550     14548
     14552     14551     14552     14553     14553     14551     14555     14554
     14555     14556     14556     14554     14558     14557     14558     14559
     14559     14557     14561     14560     14561     14562     14562     14560
     14564     14563     14564     14565     14565     14563     14567     14566
     14567     14568     14568     14566     14570     14569     14570     14571
     14571     14569     14573     14572     14573     14574     14574     14572
     14576     14575     14576     14577     14577     14575     14579     14578
     14579     14580     14580     14578     14582     14581     14582     14583
     14583     14581     14585     14584     14585     14586     14586     14584
     14588     14587     14588     14589     14589     14587     14591     14590
     14591     14592     14592     14590     14594     14593     14594     14595
     14595     14593     14597     14596     14597     14598     14598     14596
     14600     14599     14600     14601     14601     14599     14603     14602
     14603     14604     14604     14602     14606     14605     14606     14607
     14607     14605     14609     14608     14609     14610     14610     14608
     14612     14611     14612     14613     14613     14611     14615     14614
     14615     14616     14616     14614     14618     14617     14618     14619
     14619     14617     14621     14620     14621     14622     14622     14620
     14624     14623     14624     14625     14625     14623     14627     14626
     14627     14628     14628     14626     14630     14629     14630     14631
     14631     14629     14633     14632     14633     14634     14634     14632
     14636     14635     14636     14637     14637     14635     14639     14638
     14639     14640     14640     14638     14642     14641     14642     14643
     14643     14641     14645     14644     14645     14646     14646     14644
     14648     14647     14648     14649     14649     14647     14651     14650
     14651     14652     14652     14650     14654     14653     14654     14655
     14655     14653     14657     14656     14657     14658     14658     14656
     14660     14659     14660     14661     14661     14659     14663     14662
     14663     14664     14664     14662     14666     14665     14666     14667
     14667     14665     14669     14668     14669     14670     14670     14668
     14672     14671     14672     14673     14673     14671     14675     14674
     14675     14676     14676     14674     14678     14677     14678     14679
     14679     14677     14681     14680     14681     14682     14682     14680
     14684     14683     14684     14685     14685     14683     14687     14686
     14687     14688     14688     14686     14690     14689     14690     14691
     14691     14689     14693     14692     14693     14694     14694     14692
     14696     14695     14696     14697     14697     14695     14699     14698
     14699     14700     14700     14698     14702     14701     14702     14703
     14703     14701     14705     14704     14705     14706     14706     14704
     14708     14707     14708     14709     14709     14707     14711     14710
     14711     14712     14712     14710     14714     14713     14714     14715
     14715     14713     14717     14716     14717     14718     14718     14716
     14720     14719     14720     14721     14721     14719     14723     14722
     14723     14724     14724     14722     14726     14725     14726     14727
     14727     14725     14729     14728     14729     14730     14730     14728
     14732     14731     14732     14733     14733     14731     14735     14734
     14735     14736     14736     14734     14738     14737     14738     14739
     14739     14737     14741     14740     14741     14742     14742     14740
     14744     14743     14744     14745     14745     14743     14747     14746
     14747     14748     14748     14746     14750     14749     14750     14751
     14751     14749     14753     14752     14753     14754     14754     14752
     14756     14755     14756     14757     14757     14755     14759     14758
     14759     14760     14760     14758     14762     14761     14762     14763
     14763     14761     14765     14764     14765     14766     14766     14764
     14768     14767     14768     14769     14769     14767     14771     14770
     14771     14772     14772     14770     14774     14773     14774     14775
     14775     14773     14777     14776     14777     14778     14778     14776
     14780     14779     14780     14781     14781     14779     14783     14782
     14783     14784     14784     14782     14786     14785     14786     14787
     14787     14785     14789     14788     14789     14790     14790     14788
     14792     14791     14792     14793     14793     14791     14795     14794
     14795     14796     14796     14794     14798     14797     14798     14799
     14799     14797     14801     14800     14801     14802     14802     14800
     14804     14803     14804     14805     14805     14803     14807     14806
     14807     14808     14808     14806     14810     14809     14810     14811
     14811     14809     14813     14812     14813     14814     14814     14812
     14816     14815     14816     14817     14817     14815     14819     14818
     14819     14820     14820     14818     14822     14821     14822     14823
     14823     14821     14825     14824     14825     14826     14826     14824
     14828     14827     14828     14829     14829     14827     14831     14830
     14831     14832     14832     14830     14834     14833     14834     14835
     14835     14833     14837     14836     14837     14838     14838     14836
     14840     14839     14840     14841     14841     14839     14843     14842
     14843     14844     14844     14842     14846     14845     14846     14847
     14847     14845     14849     14848     14849     14850     14850     14848
     14852     14851     14852     14853     14853     14851     14855     14854
     14855     14856     14856     14854     14858     14857     14858     14859
     14859     14857     14861     14860     14861     14862     14862     14860
     14864     14863     14864     14865     14865     14863     14867     14866
     14867     14868     14868     14866     14870     14869     14870     14871
     14871     14869     14873     14872     14873     14874     14874     14872
     14876     14875     14876     14877     14877     14875     14879     14878
     14879     14880     14880     14878     14882     14881     14882     14883
     14883     14881     14885     14884     14885     14886     14886     14884
     14888     14887     14888     14889     14889     14887     14891     14890
     14891     14892     14892     14890     14894     14893     14894     14895
     14895     14893     14897     14896     14897     14898     14898     14896
     14900     14899     14900     14901     14901     14899     14903     14902
     14903     14904     14904     14902     14906     14905     14906     14907
     14907     14905     14909     14908     14909     14910     14910     14908
     14912     14911     14912     14913     14913     14911     14915     14914
     14915     14916     14916     14914     14918     14917     14918     14919
     14919     14917     14921     14920     14921     14922     14922     14920
     14924     14923     14924     14925     14925     14923     14927     14926
     14927     14928     14928     14926     14930     14929     14930     14931
     14931     14929     14933     14932     14933     14934     14934     14932
     14936     14935     14936     14937     14937     14935     14939     14938
     14939     14940     14940     14938     14942     14941     14942     14943
     14943     14941     14945     14944     14945     14946     14946     14944
     14948     14947     14948     14949     14949     14947     14951     14950
     14951     14952     14952     14950     14954     14953     14954     14955
     14955     14953     14957     14956     14957     14958     14958     14956
     14960     14959     14960     14961     14961     14959     14963     14962
     14963     14964     14964     14962     14966     14965     14966     14967
     14967     14965     14969     14968     14969     14970     14970     14968
     14972     14971     14972     14973     14973     14971     14975     14974
     14975     14976     14976     14974     14978     14977     14978     14979
     14979     14977     14981     14980     14981     14982     14982     14980
     14984     14983     14984     14985     14985     14983     14987     14986
     14987     14988     14988     14986     14990     14989     14990     14991
     14991     14989     14993     14992     14993     14994     14994     14992
     14996     14995     14996     14997     14997     14995     14999     14998
     14999     15000     15000     14998     15002     15001     15002     15003
     15003     15001     15005     15004     15005     15006     15006     15004
     15008     15007     15008     15009     15009     15007     15011     15010
     15011     15012     15012     15010     15014     15013     15014     15015
     15015     15013     15017     15016     15017     15018     15018     15016
     15020     15019     15020     15021     15021     15019     15023     15022
     15023     15024     15024     15022     15026     15025     15026     15027
     15027     15025     15029     15028     15029     15030     15030     15028
     15032     15031     15032     15033     15033     15031     15035     15034
     15035     15036     15036     15034     15038     15037     15038     15039
     15039     15037     15041     15040     15041     15042     15042     15040
     15044     15043     15044     15045     15045     15043     15047     15046
     15047     15048     15048     15046     15050     15049     15050     15051
     15051     15049     15053     15052     15053     15054     15054     15052
     15056     15055     15056     15057     15057     15055     15059     15058
     15059     15060     15060     15058     15062     15061     15062     15063
     15063     15061     15065     15064     15065     15066     15066     15064
     15068     15067     15068     15069     15069     15067     15071     15070
     15071     15072     15072     15070     15074     15073     15074     15075
     15075     15073     15077     15076     15077     15078     15078     15076
     15080     15079     15080     15081     15081     15079     15083     15082
     15083     15084     15084     15082     15086     15085     15086     15087
     15087     15085     15089     15088     15089     15090     15090     15088
     15092     15091     15092     15093     15093     15091     15095     15094
     15095     15096     15096     15094     15098     15097     15098     15099
     15099     15097     15101     15100     15101     15102     15102     15100
     15104     15103     15104     15105     15105     15103     15107     15106
     15107     15108     15108     15106     15110     15109     15110     15111
     15111     15109     15113     15112     15113     15114     15114     15112
     15116     15115     15116     15117     15117     15115     15119     15118
     15119     15120     15120     15118     15122     15121     15122     15123
     15123     15121     15125     15124     15125     15126     15126     15124
     15128     15127     15128     15129     15129     15127     15131     15130
     15131     15132     15132     15130     15134     15133     15134     15135
     15135     15133     15137     15136     15137     15138     15138     15136
     15140     15139     15140     15141     15141     15139     15143     15142
     15143     15144     15144     15142     15146     15145     15146     15147
     15147     15145     15149     15148     15149     15150     15150     15148
     15152     15151     15152     15153     15153     15151     15155     15154
     15155     15156     15156     15154     15158     15157     15158     15159
     15159     15157     15161     15160     15161     15162     15162     15160
     15164     15163     15164     15165     15165     15163     15167     15166
     15167     15168     15168     15166     15170     15169     15170     15171
     15171     15169     15173     15172     15173     15174     15174     15172
     15176     15175     15176     15177     15177     15175     15179     15178
     15179     15180     15180     15178     15182     15181     15182     15183
     15183     15181     15185     15184     15185     15186     15186     15184
     15188     15187     15188     15189     15189     15187     15191     15190
     15191     15192     15192     15190     15194     15193     15194     15195
     15195     15193     15197     15196     15197     15198     15198     15196
     15200     15199     15200     15201     15201     15199     15203     15202
     15203     15204     15204     15202     15206     15205     15206     15207
     15207     15205     15209     15208     15209     15210     15210     15208
     15212     15211     15212     15213     15213     15211     15215     15214
     15215     15216     15216     15214     15218     15217     15218     15219
     15219     15217     15221     15220     15221     15222     15222     15220
     15224     15223     15224     15225     15225     15223     15227     15226
     15227     15228     15228     15226     15230     15229     15230     15231
     15231     15229     15233     15232     15233     15234     15234     15232
     15236     15235     15236     15237     15237     15235     15239     15238
     15239     15240     15240     15238     15242     15241     15242     15243
     15243     15241     15245     15244     15245     15246     15246     15244
     15248     15247     15248     15249     15249     15247     15251     15250
     15251     15252     15252     15250     15254     15253     15254     15255
     15255     15253     15257     15256     15257     15258     15258     15256
     15260     15259     15260     15261     15261     15259     15263     15262
     15263     15264     15264     15262     15266     15265     15266     15267
     15267     15265     15269     15268     15269     15270     15270     15268
     15272     15271     15272     15273     15273     15271     15275     15274
     15275     15276     15276     15274     15278     15277     15278     15279
     15279     15277     15281     15280     15281     15282     15282     15280
     15284     15283     15284     15285     15285     15283     15287     15286
     15287     15288     15288     15286     15290     15289     15290     15291
     15291     15289     15293     15292     15293     15294     15294     15292
     15296     15295     15296     15297     15297     15295     15299     15298
     15299     15300     15300     15298     15302     15301     15302     15303
     15303     15301     15305     15304     15305     15306     15306     15304
     15308     15307     15308     15309     15309     15307     15311     15310
     15311     15312     15312     15310     15314     15313     15314     15315
     15315     15313     15317     15316     15317     15318     15318     15316
     15320     15319     15320     15321     15321     15319     15323     15322
     15323     15324     15324     15322     15326     15325     15326     15327
     15327     15325     15329     15328     15329     15330     15330     15328
     15332     15331     15332     15333     15333     15331     15335     15334
     15335     15336     15336     15334     15338     15337     15338     15339
     15339     15337     15341     15340     15341     15342     15342     15340
     15344     15343     15344     15345     15345     15343     15347     15346
     15347     15348     15348     15346     15350     15349     15350     15351
     15351     15349     15353     15352     15353     15354     15354     15352
     15356     15355     15356     15357     15357     15355     15359     15358
     15359     15360     15360     15358     15362     15361     15362     15363
     15363     15361     15365     15364     15365     15366     15366     15364
     15368     15367     15368     15369     15369     15367     15371     15370
     15371     15372     15372     15370     15374     15373     15374     15375
     15375     15373     15377     15376     15377     15378     15378     15376
     15380     15379     15380     15381     15381     15379     15383     15382
     15383     15384     15384     15382     15386     15385     15386     15387
     15387     15385     15389     15388     15389     15390     15390     15388
     15392     15391     15392     15393     15393     15391     15395     15394
     15395     15396     15396     15394     15398     15397     15398     15399
     15399     15397     15401     15400     15401     15402     15402     15400
     15404     15403     15404     15405     15405     15403     15407     15406
     15407     15408     15408     15406     15410     15409     15410     15411
     15411     15409     15413     15412     15413     15414     15414     15412
     15416     15415     15416     15417     15417     15415     15419     15418
     15419     15420     15420     15418     15422     15421     15422     15423
     15423     15421     15425     15424     15425     15426     15426     15424
     15428     15427     15428     15429     15429     15427     15431     15430
     15431     15432     15432     15430     15434     15433     15434     15435
     15435     15433     15437     15436     15437     15438     15438     15436
     15440     15439     15440     15441     15441     15439     15443     15442
     15443     15444     15444     15442     15446     15445     15446     15447
     15447     15445     15449     15448     15449     15450     15450     15448
     15452     15451     15452     15453     15453     15451     15455     15454
     15455     15456     15456     15454     15458     15457     15458     15459
     15459     15457     15461     15460     15461     15462     15462     15460
     15464     15463     15464     15465     15465     15463     15467     15466
     15467     15468     15468     15466     15470     15469     15470     15471
     15471     15469     15473     15472     15473     15474     15474     15472
     15476     15475     15476     15477     15477     15475     15479     15478
     15479     15480     15480     15478     15482     15481     15482     15483
     15483     15481     15485     15484     15485     15486     15486     15484
     15488     15487     15488     15489     15489     15487     15491     15490
     15491     15492     15492     15490     15494     15493     15494     15495
     15495     15493     15497     15496     15497     15498     15498     15496
     15500     15499     15500     15501     15501     15499     15503     15502
     15503     15504     15504     15502     15506     15505     15506     15507
     15507     15505     15509     15508     15509     15510     15510     15508
     15512     15511     15512     15513     15513     15511     15515     15514
     15515     15516     15516     15514     15518     15517     15518     15519
     15519     15517     15521     15520     15521     15522     15522     15520
     15524     15523     15524     15525     15525     15523     15527     15526
     15527     15528     15528     15526     15530     15529     15530     15531
     15531     15529     15533     15532     15533     15534     15534     15532
     15536     15535     15536     15537     15537     15535     15539     15538
     15539     15540     15540     15538     15542     15541     15542     15543
     15543     15541     15545     15544     15545     15546     15546     15544
     15548     15547     15548     15549     15549     15547     15551     15550
     15551     15552     15552     15550     15554     15553     15554     15555
     15555     15553     15557     15556     15557     15558     15558     15556
     15560     15559     15560     15561     15561     15559     15563     15562
     15563     15564     15564     15562     15566     15565     15566     15567
     15567     15565     15569     15568     15569     15570     15570     15568
     15572     15571     15572     15573     15573     15571     15575     15574
     15575     15576     15576     15574     15578     15577     15578     15579
     15579     15577     15581     15580     15581     15582     15582     15580
     15584     15583     15584     15585     15585     15583     15587     15586
     15587     15588     15588     15586     15590     15589     15590     15591
     15591     15589     15593     15592     15593     15594     15594     15592
     15596     15595     15596     15597     15597     15595     15599     15598
     15599     15600     15600     15598     15602     15601     15602     15603
     15603     15601     15605     15604     15605     15606     15606     15604
     15608     15607     15608     15609     15609     15607     15611     15610
     15611     15612     15612     15610     15614     15613     15614     15615
     15615     15613     15617     15616     15617     15618     15618     15616
     15620     15619     15620     15621     15621     15619     15623     15622
     15623     15624     15624     15622     15626     15625     15626     15627
     15627     15625     15629     15628     15629     15630     15630     15628
     15632     15631     15632     15633     15633     15631     15635     15634
     15635     15636     15636     15634     15638     15637     15638     15639
     15639     15637     15641     15640     15641     15642     15642     15640
     15644     15643     15644     15645     15645     15643     15647     15646
     15647     15648     15648     15646     15650     15649     15650     15651
     15651     15649     15653     15652     15653     15654     15654     15652
     15656     15655     15656     15657     15657     15655     15659     15658
     15659     15660     15660     15658     15662     15661     15662     15663
     15663     15661     15665     15664     15665     15666     15666     15664
     15668     15667     15668     15669     15669     15667     15671     15670
     15671     15672     15672     15670     15674     15673     15674     15675
     15675     15673     15677     15676     15677     15678     15678     15676
     15680     15679     15680     15681     15681     15679     15683     15682
     15683     15684     15684     15682     15686     15685     15686     15687
     15687     15685     15689     15688     15689     15690     15690     15688
     15692     15691     15692     15693     15693     15691     15695     15694
     15695     15696     15696     15694     15698     15697     15698     15699
     15699     15697     15701     15700     15701     15702     15702     15700
     15704     15703     15704     15705     15705     15703     15707     15706
     15707     15708     15708     15706     15710     15709     15710     15711
     15711     15709     15713     15712     15713     15714     15714     15712
     15716     15715     15716     15717     15717     15715     15719     15718
     15719     15720     15720     15718     15722     15721     15722     15723
     15723     15721     15725     15724     15725     15726     15726     15724
     15728     15727     15728     15729     15729     15727     15731     15730
     15731     15732     15732     15730     15734     15733     15734     15735
     15735     15733     15737     15736     15737     15738     15738     15736
     15740     15739     15740     15741     15741     15739     15743     15742
     15743     15744     15744     15742     15746     15745     15746     15747
     15747     15745     15749     15748     15749     15750     15750     15748
     15752     15751     15752     15753     15753     15751     15755     15754
     15755     15756     15756     15754     15758     15757     15758     15759
     15759     15757     15761     15760     15761     15762     15762     15760
     15764     15763     15764     15765     15765     15763     15767     15766
     15767     15768     15768     15766     15770     15769     15770     15771
     15771     15769     15773     15772     15773     15774     15774     15772
     15776     15775     15776     15777     15777     15775     15779     15778
     15779     15780     15780     15778     15782     15781     15782     15783
     15783     15781     15785     15784     15785     15786     15786     15784
     15788     15787     15788     15789     15789     15787     15791     15790
     15791     15792     15792     15790     15794     15793     15794     15795
     15795     15793     15797     15796     15797     15798     15798     15796
     15800     15799     15800     15801     15801     15799     15803     15802
     15803     15804     15804     15802     15806     15805     15806     15807
     15807     15805     15809     15808     15809     15810     15810     15808
     15812     15811     15812     15813     15813     15811     15815     15814
     15815     15816     15816     15814     15818     15817     15818     15819
     15819     15817     15821     15820     15821     15822     15822     15820
     15824     15823     15824     15825     15825     15823     15827     15826
     15827     15828     15828     15826     15830     15829     15830     15831
     15831     15829     15833     15832     15833     15834     15834     15832
     15836     15835     15836     15837     15837     15835     15839     15838
     15839     15840     15840     15838     15842     15841     15842     15843
     15843     15841     15845     15844     15845     15846     15846     15844
     15848     15847     15848     15849     15849     15847     15851     15850
     15851     15852     15852     15850     15854     15853     15854     15855
     15855     15853     15857     15856     15857     15858     15858     15856
     15860     15859     15860     15861     15861     15859     15863     15862
     15863     15864     15864     15862     15866     15865     15866     15867
     15867     15865     15869     15868     15869     15870     15870     15868
     15872     15871     15872     15873     15873     15871     15875     15874
     15875     15876     15876     15874     15878     15877     15878     15879
     15879     15877     15881     15880     15881     15882     15882     15880
     15884     15883     15884     15885     15885     15883     15887     15886
     15887     15888     15888     15886     15890     15889     15890     15891
     15891     15889     15893     15892     15893     15894     15894     15892
     15896     15895     15896     15897     15897     15895     15899     15898
     15899     15900     15900     15898     15902     15901     15902     15903
     15903     15901     15905     15904     15905     15906     15906     15904
     15908     15907     15908     15909     15909     15907     15911     15910
     15911     15912     15912     15910     15914     15913     15914     15915
     15915     15913     15917     15916     15917     15918     15918     15916
     15920     15919     15920     15921     15921     15919     15923     15922
     15923     15924     15924     15922     15926     15925     15926     15927
     15927     15925     15929     15928     15929     15930     15930     15928
     15932     15931     15932     15933     15933     15931     15935     15934
     15935     15936     15936     15934     15938     15937     15938     15939
     15939     15937     15941     15940     15941     15942     15942     15940
     15944     15943     15944     15945     15945     15943     15947     15946
     15947     15948     15948     15946     15950     15949     15950     15951
     15951     15949     15953     15952     15953     15954     15954     15952
     15956     15955     15956     15957     15957     15955     15959     15958
     15959     15960     15960     15958     15962     15961     15962     15963
     15963     15961     15965     15964     15965     15966     15966     15964
     15968     15967     15968     15969     15969     15967     15971     15970
     15971     15972     15972     15970     15974     15973     15974     15975
     15975     15973     15977     15976     15977     15978     15978     15976
     15980     15979     15980     15981     15981     15979     15983     15982
     15983     15984     15984     15982     15986     15985     15986     15987
     15987     15985     15989     15988     15989     15990     15990     15988
     15992     15991     15992     15993     15993     15991     15995     15994
     15995     15996     15996     15994     15998     15997     15998     15999
     15999     15997     16001     16000     16001     16002     16002     16000
     16004     16003     16004     16005     16005     16003     16007     16006
     16007     16008     16008     16006     16010     16009     16010     16011
     16011     16009     16013     16012     16013     16014     16014     16012
     16016     16015     16016     16017     16017     16015     16019     16018
     16019     16020     16020     16018     16022     16021     16022     16023
     16023     16021     16025     16024     16025     16026     16026     16024
     16028     16027     16028     16029     16029     16027     16031     16030
     16031     16032     16032     16030     16034     16033     16034     16035
     16035     16033     16037     16036     16037     16038     16038     16036
     16040     16039     16040     16041     16041     16039     16043     16042
     16043     16044     16044     16042     16046     16045     16046     16047
     16047     16045     16049     16048     16049     16050     16050     16048
     16052     16051     16052     16053     16053     16051     16055     16054
     16055     16056     16056     16054     16058     16057     16058     16059
     16059     16057     16061     16060     16061     16062     16062     16060
     16064     16063     16064     16065     16065     16063     16067     16066
     16067     16068     16068     16066     16070     16069     16070     16071
     16071     16069     16073     16072     16073     16074     16074     16072
     16076     16075     16076     16077     16077     16075     16079     16078
     16079     16080     16080     16078     16082     16081     16082     16083
     16083     16081     16085     16084     16085     16086     16086     16084
     16088     16087     16088     16089     16089     16087     16091     16090
     16091     16092     16092     16090     16094     16093     16094     16095
     16095     16093     16097     16096     16097     16098     16098     16096
     16100     16099     16100     16101     16101     16099     16103     16102
     16103     16104     16104     16102     16106     16105     16106     16107
     16107     16105     16109     16108     16109     16110     16110     16108
     16112     16111     16112     16113     16113     16111     16115     16114
     16115     16116     16116     16114     16118     16117     16118     16119
     16119     16117     16121     16120     16121     16122     16122     16120
     16124     16123     16124     16125     16125     16123     16127     16126
     16127     16128     16128     16126     16130     16129     16130     16131
     16131     16129     16133     16132     16133     16134     16134     16132
     16136     16135     16136     16137     16137     16135     16139     16138
     16139     16140     16140     16138     16142     16141     16142     16143
     16143     16141     16145     16144     16145     16146     16146     16144
     16148     16147     16148     16149     16149     16147     16151     16150
     16151     16152     16152     16150     16154     16153     16154     16155
     16155     16153     16157     16156     16157     16158     16158     16156
     16160     16159     16160     16161     16161     16159     16163     16162
     16163     16164     16164     16162     16166     16165     16166     16167
     16167     16165     16169     16168     16169     16170     16170     16168
     16172     16171     16172     16173     16173     16171     16175     16174
     16175     16176     16176     16174     16178     16177     16178     16179
     16179     16177     16181     16180     16181     16182     16182     16180
     16184     16183     16184     16185     16185     16183     16187     16186
     16187     16188     16188     16186     16190     16189     16190     16191
     16191     16189     16193     16192     16193     16194     16194     16192
     16196     16195     16196     16197     16197     16195     16199     16198
     16199     16200     16200     16198     16202     16201     16202     16203
     16203     16201     16205     16204     16205     16206     16206     16204
     16208     16207     16208     16209     16209     16207     16211     16210
     16211     16212     16212     16210     16214     16213     16214     16215
     16215     16213     16217     16216     16217     16218     16218     16216
     16220     16219     16220     16221     16221     16219     16223     16222
     16223     16224     16224     16222     16226     16225     16226     16227
     16227     16225     16229     16228     16229     16230     16230     16228
     16232     16231     16232     16233     16233     16231     16235     16234
     16235     16236     16236     16234     16238     16237     16238     16239
     16239     16237     16241     16240     16241     16242     16242     16240
     16244     16243     16244     16245     16245     16243     16247     16246
     16247     16248     16248     16246     16250     16249     16250     16251
     16251     16249     16253     16252     16253     16254     16254     16252
     16256     16255     16256     16257     16257     16255     16259     16258
     16259     16260     16260     16258     16262     16261     16262     16263
     16263     16261     16265     16264     16265     16266     16266     16264
     16268     16267     16268     16269     16269     16267     16271     16270
     16271     16272     16272     16270     16274     16273     16274     16275
     16275     16273     16277     16276     16277     16278     16278     16276
     16280     16279     16280     16281     16281     16279     16283     16282
     16283     16284     16284     16282     16286     16285     16286     16287
     16287     16285     16289     16288     16289     16290     16290     16288
     16292     16291     16292     16293     16293     16291     16295     16294
     16295     16296     16296     16294     16298     16297     16298     16299
     16299     16297     16301     16300     16301     16302     16302     16300
     16304     16303     16304     16305     16305     16303     16307     16306
     16307     16308     16308     16306     16310     16309     16310     16311
     16311     16309     16313     16312     16313     16314     16314     16312
     16316     16315     16316     16317     16317     16315     16319     16318
     16319     16320     16320     16318     16322     16321     16322     16323
     16323     16321     16325     16324     16325     16326     16326     16324
     16328     16327     16328     16329     16329     16327     16331     16330
     16331     16332     16332     16330     16334     16333     16334     16335
     16335     16333     16337     16336     16337     16338     16338     16336
     16340     16339     16340     16341     16341     16339     16343     16342
     16343     16344     16344     16342     16346     16345     16346     16347
     16347     16345     16349     16348     16349     16350     16350     16348
     16352     16351     16352     16353     16353     16351     16355     16354
     16355     16356     16356     16354     16358     16357     16358     16359
     16359     16357     16361     16360     16361     16362     16362     16360
     16364     16363     16364     16365     16365     16363     16367     16366
     16367     16368     16368     16366     16370     16369     16370     16371
     16371     16369     16373     16372     16373     16374     16374     16372
     16376     16375     16376     16377     16377     16375     16379     16378
     16379     16380     16380     16378     16382     16381     16382     16383
     16383     16381     16385     16384     16385     16386     16386     16384
     16388     16387     16388     16389     16389     16387     16391     16390
     16391     16392     16392     16390     16394     16393     16394     16395
     16395     16393     16397     16396     16397     16398     16398     16396
     16400     16399     16400     16401     16401     16399     16403     16402
     16403     16404     16404     16402     16406     16405     16406     16407
     16407     16405     16409     16408     16409     16410     16410     16408
     16412     16411     16412     16413     16413     16411     16415     16414
     16415     16416     16416     16414     16418     16417     16418     16419
     16419     16417     16421     16420     16421     16422     16422     16420
     16424     16423     16424     16425     16425     16423     16427     16426
     16427     16428     16428     16426     16430     16429     16430     16431
     16431     16429     16433     16432     16433     16434     16434     16432
     16436     16435     16436     16437     16437     16435     16439     16438
     16439     16440     16440     16438     16442     16441     16442     16443
     16443     16441     16445     16444     16445     16446     16446     16444
     16448     16447     16448     16449     16449     16447     16451     16450
     16451     16452     16452     16450     16454     16453     16454     16455
     16455     16453     16457     16456     16457     16458     16458     16456
     16460     16459     16460     16461     16461     16459     16463     16462
     16463     16464     16464     16462     16466     16465     16466     16467
     16467     16465     16469     16468     16469     16470     16470     16468
     16472     16471     16472     16473     16473     16471     16475     16474
     16475     16476     16476     16474     16478     16477     16478     16479
     16479     16477     16481     16480     16481     16482     16482     16480
     16484     16483     16484     16485     16485     16483     16487     16486
     16487     16488     16488     16486     16490     16489     16490     16491
     16491     16489     16493     16492     16493     16494     16494     16492
     16496     16495     16496     16497     16497     16495     16499     16498
     16499     16500     16500     16498     16502     16501     16502     16503
     16503     16501     16505     16504     16505     16506     16506     16504
     16508     16507     16508     16509     16509     16507     16511     16510
     16511     16512     16512     16510     16514     16513     16514     16515
     16515     16513     16517     16516     16517     16518     16518     16516
     16520     16519     16520     16521     16521     16519     16523     16522
     16523     16524     16524     16522     16526     16525     16526     16527
     16527     16525     16529     16528     16529     16530     16530     16528
     16532     16531     16532     16533     16533     16531     16535     16534
     16535     16536     16536     16534     16538     16537     16538     16539
     16539     16537     16541     16540     16541     16542     16542     16540
     16544     16543     16544     16545     16545     16543     16547     16546
     16547     16548     16548     16546     16550     16549     16550     16551
     16551     16549     16553     16552     16553     16554     16554     16552
     16556     16555     16556     16557     16557     16555     16559     16558
     16559     16560     16560     16558     16562     16561     16562     16563
     16563     16561     16565     16564     16565     16566     16566     16564
     16568     16567     16568     16569     16569     16567     16571     16570
     16571     16572     16572     16570     16574     16573     16574     16575
     16575     16573     16577     16576     16577     16578     16578     16576
     16580     16579     16580     16581     16581     16579     16583     16582
     16583     16584     16584     16582     16586     16585     16586     16587
     16587     16585     16589     16588     16589     16590     16590     16588
     16592     16591     16592     16593     16593     16591     16595     16594
     16595     16596     16596     16594     16598     16597     16598     16599
     16599     16597     16601     16600     16601     16602     16602     16600
     16604     16603     16604     16605     16605     16603     16607     16606
     16607     16608     16608     16606     16610     16609     16610     16611
     16611     16609     16613     16612     16613     16614     16614     16612
     16616     16615     16616     16617     16617     16615     16619     16618
     16619     16620     16620     16618     16622     16621     16622     16623
     16623     16621     16625     16624     16625     16626     16626     16624
     16628     16627     16628     16629     16629     16627     16631     16630
     16631     16632     16632     16630     16634     16633     16634     16635
     16635     16633     16637     16636     16637     16638     16638     16636
     16640     16639     16640     16641     16641     16639     16643     16642
     16643     16644     16644     16642     16646     16645     16646     16647
     16647     16645     16649     16648     16649     16650     16650     16648
     16652     16651     16652     16653     16653     16651     16655     16654
     16655     16656     16656     16654     16658     16657     16658     16659
     16659     16657     16661     16660     16661     16662     16662     16660
     16664     16663     16664     16665     16665     16663     16667     16666
     16667     16668     16668     16666     16670     16669     16670     16671
     16671     16669     16673     16672     16673     16674     16674     16672
     16676     16675     16676     16677     16677     16675     16679     16678
     16679     16680     16680     16678     16682     16681     16682     16683
     16683     16681     16685     16684     16685     16686     16686     16684
     16688     16687     16688     16689     16689     16687     16691     16690
     16691     16692     16692     16690     16694     16693     16694     16695
     16695     16693     16697     16696     16697     16698     16698     16696
     16700     16699     16700     16701     16701     16699     16703     16702
     16703     16704     16704     16702     16706     16705     16706     16707
     16707     16705     16709     16708     16709     16710     16710     16708
     16712     16711     16712     16713     16713     16711     16715     16714
     16715     16716     16716     16714     16718     16717     16718     16719
     16719     16717     16721     16720     16721     16722     16722     16720
     16724     16723     16724     16725     16725     16723     16727     16726
     16727     16728     16728     16726     16730     16729     16730     16731
     16731     16729     16733     16732     16733     16734     16734     16732
     16736     16735     16736     16737     16737     16735     16739     16738
     16739     16740     16740     16738     16742     16741     16742     16743
     16743     16741     16745     16744     16745     16746     16746     16744
     16748     16747     16748     16749     16749     16747     16751     16750
     16751     16752     16752     16750     16754     16753     16754     16755
     16755     16753     16757     16756     16757     16758     16758     16756
     16760     16759     16760     16761     16761     16759     16763     16762
     16763     16764     16764     16762     16766     16765     16766     16767
     16767     16765     16769     16768     16769     16770     16770     16768
     16772     16771     16772     16773     16773     16771     16775     16774
     16775     16776     16776     16774     16778     16777     16778     16779
     16779     16777     16781     16780     16781     16782     16782     16780
     16784     16783     16784     16785     16785     16783     16787     16786
     16787     16788     16788     16786     16790     16789     16790     16791
     16791     16789     16793     16792     16793     16794     16794     16792
     16796     16795     16796     16797     16797     16795     16799     16798
     16799     16800     16800     16798     16802     16801     16802     16803
     16803     16801     16805     16804     16805     16806     16806     16804
     16808     16807     16808     16809     16809     16807     16811     16810
     16811     16812     16812     16810     16814     16813     16814     16815
     16815     16813     16817     16816     16817     16818     16818     16816
     16820     16819     16820     16821     16821     16819     16823     16822
     16823     16824     16824     16822     16826     16825     16826     16827
     16827     16825     16829     16828     16829     16830     16830     16828
     16832     16831     16832     16833     16833     16831     16835     16834
     16835     16836     16836     16834     16838     16837     16838     16839
     16839     16837     16841     16840     16841     16842     16842     16840
     16844     16843     16844     16845     16845     16843     16847     16846
     16847     16848     16848     16846     16850     16849     16850     16851
     16851     16849     16853     16852     16853     16854     16854     16852
     16856     16855     16856     16857     16857     16855     16859     16858
     16859     16860     16860     16858     16862     16861     16862     16863
     16863     16861     16865     16864     16865     16866     16866     16864
     16868     16867     16868     16869     16869     16867     16871     16870
     16871     16872     16872     16870     16874     16873     16874     16875
     16875     16873     16877     16876     16877     16878     16878     16876
     16880     16879     16880     16881     16881     16879     16883     16882
     16883     16884     16884     16882     16886     16885     16886     16887
     16887     16885     16889     16888     16889     16890     16890     16888
     16892     16891     16892     16893     16893     16891     16895     16894
     16895     16896     16896     16894     16898     16897     16898     16899
     16899     16897     16901     16900     16901     16902     16902     16900
     16904     16903     16904     16905     16905     16903     16907     16906
     16907     16908     16908     16906     16910     16909     16910     16911
     16911     16909     16913     16912     16913     16914     16914     16912
     16916     16915     16916     16917     16917     16915     16919     16918
     16919     16920     16920     16918     16922     16921     16922     16923
     16923     16921     16925     16924     16925     16926     16926     16924
     16928     16927     16928     16929     16929     16927     16931     16930
     16931     16932     16932     16930     16934     16933     16934     16935
     16935     16933     16937     16936     16937     16938     16938     16936
     16940     16939     16940     16941     16941     16939     16943     16942
     16943     16944     16944     16942     16946     16945     16946     16947
     16947     16945     16949     16948     16949     16950     16950     16948
     16952     16951     16952     16953     16953     16951     16955     16954
     16955     16956     16956     16954     16958     16957     16958     16959
     16959     16957     16961     16960     16961     16962     16962     16960
     16964     16963     16964     16965     16965     16963     16967     16966
     16967     16968     16968     16966     16970     16969     16970     16971
     16971     16969     16973     16972     16973     16974     16974     16972
     16976     16975     16976     16977     16977     16975     16979     16978
     16979     16980     16980     16978     16982     16981     16982     16983
     16983     16981     16985     16984     16985     16986     16986     16984
     16988     16987     16988     16989     16989     16987     16991     16990
     16991     16992     16992     16990     16994     16993     16994     16995
     16995     16993     16997     16996     16997     16998     16998     16996
     17000     16999     17000     17001     17001     16999     17003     17002
     17003     17004     17004     17002     17006     17005     17006     17007
     17007     17005     17009     17008     17009     17010     17010     17008
     17012     17011     17012     17013     17013     17011     17015     17014
     17015     17016     17016     17014     17018     17017     17018     17019
     17019     17017     17021     17020     17021     17022     17022     17020
     17024     17023     17024     17025     17025     17023     17027     17026
     17027     17028     17028     17026     17030     17029     17030     17031
     17031     17029     17033     17032     17033     17034     17034     17032
     17036     17035     17036     17037     17037     17035     17039     17038
     17039     17040     17040     17038     17042     17041     17042     17043
     17043     17041     17045     17044     17045     17046     17046     17044
     17048     17047     17048     17049     17049     17047     17051     17050
     17051     17052     17052     17050     17054     17053     17054     17055
     17055     17053     17057     17056     17057     17058     17058     17056
     17060     17059     17060     17061     17061     17059     17063     17062
     17063     17064     17064     17062     17066     17065     17066     17067
     17067     17065     17069     17068     17069     17070     17070     17068
     17072     17071     17072     17073     17073     17071     17075     17074
     17075     17076     17076     17074     17078     17077     17078     17079
     17079     17077     17081     17080     17081     17082     17082     17080
     17084     17083     17084     17085     17085     17083     17087     17086
     17087     17088     17088     17086     17090     17089     17090     17091
     17091     17089     17093     17092     17093     17094     17094     17092
     17096     17095     17096     17097     17097     17095     17099     17098
     17099     17100     17100     17098     17102     17101     17102     17103
     17103     17101     17105     17104     17105     17106     17106     17104
     17108     17107     17108     17109     17109     17107     17111     17110
     17111     17112     17112     17110     17114     17113     17114     17115
     17115     17113     17117     17116     17117     17118     17118     17116
     17120     17119     17120     17121     17121     17119     17123     17122
     17123     17124     17124     17122     17126     17125     17126     17127
     17127     17125     17129     17128     17129     17130     17130     17128
     17132     17131     17132     17133     17133     17131     17135     17134
     17135     17136     17136     17134     17138     17137     17138     17139
     17139     17137     17141     17140     17141     17142     17142     17140
     17144     17143     17144     17145     17145     17143     17147     17146
     17147     17148     17148     17146     17150     17149     17150     17151
     17151     17149     17153     17152     17153     17154     17154     17152
     17156     17155     17156     17157     17157     17155     17159     17158
     17159     17160     17160     17158     17162     17161     17162     17163
     17163     17161     17165     17164     17165     17166     17166     17164
     17168     17167     17168     17169     17169     17167     17171     17170
     17171     17172     17172     17170     17174     17173     17174     17175
     17175     17173     17177     17176     17177     17178     17178     17176
     17180     17179     17180     17181     17181     17179     17183     17182
     17183     17184     17184     17182     17186     17185     17186     17187
     17187     17185     17189     17188     17189     17190     17190     17188
     17192     17191     17192     17193     17193     17191     17195     17194
     17195     17196     17196     17194     17198     17197     17198     17199
     17199     17197     17201     17200     17201     17202     17202     17200
     17204     17203     17204     17205     17205     17203     17207     17206
     17207     17208     17208     17206     17210     17209     17210     17211
     17211     17209     17213     17212     17213     17214     17214     17212
     17216     17215     17216     17217     17217     17215     17219     17218
     17219     17220     17220     17218     17222     17221     17222     17223
     17223     17221     17225     17224     17225     17226     17226     17224
     17228     17227     17228     17229     17229     17227     17231     17230
     17231     17232     17232     17230     17234     17233     17234     17235
     17235     17233     17237     17236     17237     17238     17238     17236
     17240     17239     17240     17241     17241     17239     17243     17242
     17243     17244     17244     17242     17246     17245     17246     17247
     17247     17245     17249     17248     17249     17250     17250     17248
     17252     17251     17252     17253     17253     17251     17255     17254
     17255     17256     17256     17254     17258     17257     17258     17259
     17259     17257     17261     17260     17261     17262     17262     17260
     17264     17263     17264     17265     17265     17263     17267     17266
     17267     17268     17268     17266     17270     17269     17270     17271
     17271     17269     17273     17272     17273     17274     17274     17272
     17276     17275     17276     17277     17277     17275     17279     17278
     17279     17280     17280     17278     17282     17281     17282     17283
     17283     17281     17285     17284     17285     17286     17286     17284
     17288     17287     17288     17289     17289     17287     17291     17290
     17291     17292     17292     17290     17294     17293     17294     17295
     17295     17293     17297     17296     17297     17298     17298     17296
     17300     17299     17300     17301     17301     17299     17303     17302
     17303     17304     17304     17302     17306     17305     17306     17307
     17307     17305     17309     17308     17309     17310     17310     17308
     17312     17311     17312     17313     17313     17311     17315     17314
     17315     17316     17316     17314     17318     17317     17318     17319
     17319     17317     17321     17320     17321     17322     17322     17320
     17324     17323     17324     17325     17325     17323     17327     17326
     17327     17328     17328     17326     17330     17329     17330     17331
     17331     17329     17333     17332     17333     17334     17334     17332
     17336     17335     17336     17337     17337     17335     17339     17338
     17339     17340     17340     17338     17342     17341     17342     17343
     17343     17341     17345     17344     17345     17346     17346     17344
     17348     17347     17348     17349     17349     17347     17351     17350
     17351     17352     17352     17350     17354     17353     17354     17355
     17355     17353     17357     17356     17357     17358     17358     17356
     17360     17359     17360     17361     17361     17359     17363     17362
     17363     17364     17364     17362     17366     17365     17366     17367
     17367     17365     17369     17368     17369     17370     17370     17368
     17372     17371     17372     17373     17373     17371     17375     17374
     17375     17376     17376     17374     17378     17377     17378     17379
     17379     17377     17381     17380     17381     17382     17382     17380
     17384     17383     17384     17385     17385     17383     17387     17386
     17387     17388     17388     17386     17390     17389     17390     17391
     17391     17389     17393     17392     17393     17394     17394     17392
     17396     17395     17396     17397     17397     17395     17399     17398
     17399     17400     17400     17398     17402     17401     17402     17403
     17403     17401     17405     17404     17405     17406     17406     17404
     17408     17407     17408     17409     17409     17407     17411     17410
     17411     17412     17412     17410     17414     17413     17414     17415
     17415     17413     17417     17416     17417     17418     17418     17416
     17420     17419     17420     17421     17421     17419     17423     17422
     17423     17424     17424     17422     17426     17425     17426     17427
     17427     17425     17429     17428     17429     17430     17430     17428
     17432     17431     17432     17433     17433     17431     17435     17434
     17435     17436     17436     17434     17438     17437     17438     17439
     17439     17437     17441     17440     17441     17442     17442     17440
     17444     17443     17444     17445     17445     17443     17447     17446
     17447     17448     17448     17446     17450     17449     17450     17451
     17451     17449     17453     17452     17453     17454     17454     17452
     17456     17455     17456     17457     17457     17455     17459     17458
     17459     17460     17460     17458     17462     17461     17462     17463
     17463     17461     17465     17464     17465     17466     17466     17464
     17468     17467     17468     17469     17469     17467     17471     17470
     17471     17472     17472     17470     17474     17473     17474     17475
     17475     17473     17477     17476     17477     17478     17478     17476
     17480     17479     17480     17481     17481     17479     17483     17482
     17483     17484     17484     17482     17486     17485     17486     17487
     17487     17485     17489     17488     17489     17490     17490     17488
     17492     17491     17492     17493     17493     17491     17495     17494
     17495     17496     17496     17494     17498     17497     17498     17499
     17499     17497     17501     17500     17501     17502     17502     17500
     17504     17503     17504     17505     17505     17503     17507     17506
     17507     17508     17508     17506     17510     17509     17510     17511
     17511     17509     17513     17512     17513     17514     17514     17512
     17516     17515     17516     17517     17517     17515     17519     17518
     17519     17520     17520     17518     17522     17521     17522     17523
     17523     17521     17525     17524     17525     17526     17526     17524
     17528     17527     17528     17529     17529     17527     17531     17530
     17531     17532     17532     17530     17534     17533     17534     17535
     17535     17533     17537     17536     17537     17538     17538     17536
     17540     17539     17540     17541     17541     17539     17543     17542
     17543     17544     17544     17542     17546     17545     17546     17547
     17547     17545     17549     17548     17549     17550     17550     17548
     17552     17551     17552     17553     17553     17551     17555     17554
     17555     17556     17556     17554     17558     17557     17558     17559
     17559     17557     17561     17560     17561     17562     17562     17560
     17564     17563     17564     17565     17565     17563     17567     17566
     17567     17568     17568     17566     17570     17569     17570     17571
     17571     17569     17573     17572     17573     17574     17574     17572
     17576     17575     17576     17577     17577     17575     17579     17578
     17579     17580     17580     17578     17582     17581     17582     17583
     17583     17581     17585     17584     17585     17586     17586     17584
     17588     17587     17588     17589     17589     17587     17591     17590
     17591     17592     17592     17590     17594     17593     17594     17595
     17595     17593     17597     17596     17597     17598     17598     17596
     17600     17599     17600     17601     17601     17599     17603     17602
     17603     17604     17604     17602     17606     17605     17606     17607
     17607     17605     17609     17608     17609     17610     17610     17608
     17612     17611     17612     17613     17613     17611     17615     17614
     17615     17616     17616     17614     17618     17617     17618     17619
     17619     17617     17621     17620     17621     17622     17622     17620
     17624     17623     17624     17625     17625     17623     17627     17626
     17627     17628     17628     17626     17630     17629     17630     17631
     17631     17629     17633     17632     17633     17634     17634     17632
     17636     17635     17636     17637     17637     17635     17639     17638
     17639     17640     17640     17638     17642     17641     17642     17643
     17643     17641     17645     17644     17645     17646     17646     17644
     17648     17647     17648     17649     17649     17647     17651     17650
     17651     17652     17652     17650     17654     17653     17654     17655
     17655     17653     17657     17656     17657     17658     17658     17656
     17660     17659     17660     17661     17661     17659     17663     17662
     17663     17664     17664     17662     17666     17665     17666     17667
     17667     17665     17669     17668     17669     17670     17670     17668
     17672     17671     17672     17673     17673     17671     17675     17674
     17675     17676     17676     17674     17678     17677     17678     17679
     17679     17677     17681     17680     17681     17682     17682     17680
     17684     17683     17684     17685     17685     17683     17687     17686
     17687     17688     17688     17686     17690     17689     17690     17691
     17691     17689     17693     17692     17693     17694     17694     17692
     17696     17695     17696     17697     17697     17695     17699     17698
     17699     17700     17700     17698     17702     17701     17702     17703
     17703     17701     17705     17704     17705     17706     17706     17704
     17708     17707     17708     17709     17709     17707     17711     17710
     17711     17712     17712     17710     17714     17713     17714     17715
     17715     17713     17717     17716     17717     17718     17718     17716
     17720     17719     17720     17721     17721     17719     17723     17722
     17723     17724     17724     17722     17726     17725     17726     17727
     17727     17725     17729     17728     17729     17730     17730     17728
     17732     17731     17732     17733     17733     17731     17735     17734
     17735     17736     17736     17734     17738     17737     17738     17739
     17739     17737     17741     17740     17741     17742     17742     17740
     17744     17743     17744     17745     17745     17743     17747     17746
     17747     17748     17748     17746     17750     17749     17750     17751
     17751     17749     17753     17752     17753     17754     17754     17752
     17756     17755     17756     17757     17757     17755     17759     17758
     17759     17760     17760     17758     17762     17761     17762     17763
     17763     17761     17765     17764     17765     17766     17766     17764
     17768     17767     17768     17769     17769     17767     17771     17770
     17771     17772     17772     17770     17774     17773     17774     17775
     17775     17773     17777     17776     17777     17778     17778     17776
     17780     17779     17780     17781     17781     17779     17783     17782
     17783     17784     17784     17782     17786     17785     17786     17787
     17787     17785     17789     17788     17789     17790     17790     17788
     17792     17791     17792     17793     17793     17791     17795     17794
     17795     17796     17796     17794     17798     17797     17798     17799
     17799     17797     17801     17800     17801     17802     17802     17800
     17804     17803     17804     17805     17805     17803     17807     17806
     17807     17808     17808     17806     17810     17809     17810     17811
     17811     17809     17813     17812     17813     17814     17814     17812
     17816     17815     17816     17817     17817     17815     17819     17818
     17819     17820     17820     17818     17822     17821     17822     17823
     17823     17821     17825     17824     17825     17826     17826     17824
     17828     17827     17828     17829     17829     17827     17831     17830
     17831     17832     17832     17830     17834     17833     17834     17835
     17835     17833     17837     17836     17837     17838     17838     17836
     17840     17839     17840     17841     17841     17839     17843     17842
     17843     17844     17844     17842     17846     17845     17846     17847
     17847     17845     17849     17848     17849     17850     17850     17848
     17852     17851     17852     17853     17853     17851     17855     17854
     17855     17856     17856     17854     17858     17857     17858     17859
     17859     17857     17861     17860     17861     17862     17862     17860
     17864     17863     17864     17865     17865     17863     17867     17866
     17867     17868     17868     17866     17870     17869     17870     17871
     17871     17869     17873     17872     17873     17874     17874     17872
     17876     17875     17876     17877     17877     17875     17879     17878
     17879     17880     17880     17878     17882     17881     17882     17883
     17883     17881     17885     17884     17885     17886     17886     17884
     17888     17887     17888     17889     17889     17887     17891     17890
     17891     17892     17892     17890     17894     17893     17894     17895
     17895     17893     17897     17896     17897     17898     17898     17896
     17900     17899     17900     17901     17901     17899     17903     17902
     17903     17904     17904     17902     17906     17905     17906     17907
     17907     17905     17909     17908     17909     17910     17910     17908
     17912     17911     17912     17913     17913     17911     17915     17914
     17915     17916     17916     17914     17918     17917     17918     17919
     17919     17917     17921     17920     17921     17922     17922     17920
     17924     17923     17924     17925     17925     17923     17927     17926
     17927     17928     17928     17926     17930     17929     17930     17931
     17931     17929     17933     17932     17933     17934     17934     17932
     17936     17935     17936     17937     17937     17935     17939     17938
     17939     17940     17940     17938     17942     17941     17942     17943
     17943     17941     17945     17944     17945     17946     17946     17944
     17948     17947     17948     17949     17949     17947     17951     17950
     17951     17952     17952     17950     17954     17953     17954     17955
     17955     17953     17957     17956     17957     17958     17958     17956
     17960     17959     17960     17961     17961     17959     17963     17962
     17963     17964     17964     17962     17966     17965     17966     17967
     17967     17965     17969     17968     17969     17970     17970     17968
     17972     17971     17972     17973     17973     17971     17975     17974
     17975     17976     17976     17974     17978     17977     17978     17979
     17979     17977     17981     17980     17981     17982     17982     17980
     17984     17983     17984     17985     17985     17983     17987     17986
     17987     17988     17988     17986     17990     17989     17990     17991
     17991     17989     17993     17992     17993     17994     17994     17992
     17996     17995     17996     17997     17997     17995     17999     17998
     17999     18000     18000     17998     18002     18001     18002     18003
     18003     18001     18005     18004     18005     18006     18006     18004
     18008     18007     18008     18009     18009     18007     18011     18010
     18011     18012     18012     18010     18014     18013     18014     18015
     18015     18013     18017     18016     18017     18018     18018     18016
     18020     18019     18020     18021     18021     18019     18023     18022
     18023     18024     18024     18022     18026     18025     18026     18027
     18027     18025     18029     18028     18029     18030     18030     18028
     18032     18031     18032     18033     18033     18031     18035     18034
     18035     18036     18036     18034     18038     18037     18038     18039
     18039     18037     18041     18040     18041     18042     18042     18040
     18044     18043     18044     18045     18045     18043     18047     18046
     18047     18048     18048     18046     18050     18049     18050     18051
     18051     18049     18053     18052     18053     18054     18054     18052
     18056     18055     18056     18057     18057     18055     18059     18058
     18059     18060     18060     18058     18062     18061     18062     18063
     18063     18061     18065     18064     18065     18066     18066     18064
     18068     18067     18068     18069     18069     18067     18071     18070
     18071     18072     18072     18070     18074     18073     18074     18075
     18075     18073     18077     18076     18077     18078     18078     18076
     18080     18079     18080     18081     18081     18079     18083     18082
     18083     18084     18084     18082     18086     18085     18086     18087
     18087     18085     18089     18088     18089     18090     18090     18088
     18092     18091     18092     18093     18093     18091     18095     18094
     18095     18096     18096     18094     18098     18097     18098     18099
     18099     18097     18101     18100     18101     18102     18102     18100
     18104     18103     18104     18105     18105     18103     18107     18106
     18107     18108     18108     18106     18110     18109     18110     18111
     18111     18109     18113     18112     18113     18114     18114     18112
     18116     18115     18116     18117     18117     18115     18119     18118
     18119     18120     18120     18118     18122     18121     18122     18123
     18123     18121     18125     18124     18125     18126     18126     18124
     18128     18127     18128     18129     18129     18127     18131     18130
     18131     18132     18132     18130     18134     18133     18134     18135
     18135     18133     18137     18136     18137     18138     18138     18136
     18140     18139     18140     18141     18141     18139     18143     18142
     18143     18144     18144     18142     18146     18145     18146     18147
     18147     18145     18149     18148     18149     18150     18150     18148
     18152     18151     18152     18153     18153     18151     18155     18154
     18155     18156     18156     18154     18158     18157     18158     18159
     18159     18157     18161     18160     18161     18162     18162     18160
     18164     18163     18164     18165     18165     18163     18167     18166
     18167     18168     18168     18166     18170     18169     18170     18171
     18171     18169     18173     18172     18173     18174     18174     18172
     18176     18175     18176     18177     18177     18175     18179     18178
     18179     18180     18180     18178     18182     18181     18182     18183
     18183     18181     18185     18184     18185     18186     18186     18184
     18188     18187     18188     18189     18189     18187     18191     18190
     18191     18192     18192     18190     18194     18193     18194     18195
     18195     18193     18197     18196     18197     18198     18198     18196
     18200     18199     18200     18201     18201     18199     18203     18202
     18203     18204     18204     18202     18206     18205     18206     18207
     18207     18205     18209     18208     18209     18210     18210     18208
     18212     18211     18212     18213     18213     18211     18215     18214
     18215     18216     18216     18214     18218     18217     18218     18219
     18219     18217     18221     18220     18221     18222     18222     18220
     18224     18223     18224     18225     18225     18223     18227     18226
     18227     18228     18228     18226     18230     18229     18230     18231
     18231     18229     18233     18232     18233     18234     18234     18232
     18236     18235     18236     18237     18237     18235     18239     18238
     18239     18240     18240     18238     18242     18241     18242     18243
     18243     18241     18245     18244     18245     18246     18246     18244
     18248     18247     18248     18249     18249     18247     18251     18250
     18251     18252     18252     18250     18254     18253     18254     18255
     18255     18253     18257     18256     18257     18258     18258     18256
     18260     18259     18260     18261     18261     18259     18263     18262
     18263     18264     18264     18262     18266     18265     18266     18267
     18267     18265     18269     18268     18269     18270     18270     18268
     18272     18271     18272     18273     18273     18271     18275     18274
     18275     18276     18276     18274     18278     18277     18278     18279
     18279     18277     18281     18280     18281     18282     18282     18280
     18284     18283     18284     18285     18285     18283     18287     18286
     18287     18288     18288     18286     18290     18289     18290     18291
     18291     18289     18293     18292     18293     18294     18294     18292
     18296     18295     18296     18297     18297     18295     18299     18298
     18299     18300     18300     18298     18302     18301     18302     18303
     18303     18301     18305     18304     18305     18306     18306     18304
     18308     18307     18308     18309     18309     18307     18311     18310
     18311     18312     18312     18310     18314     18313     18314     18315
     18315     18313     18317     18316     18317     18318     18318     18316
     18320     18319     18320     18321     18321     18319     18323     18322
     18323     18324     18324     18322     18326     18325     18326     18327
     18327     18325     18329     18328     18329     18330     18330     18328
     18332     18331     18332     18333     18333     18331     18335     18334
     18335     18336     18336     18334     18338     18337     18338     18339
     18339     18337     18341     18340     18341     18342     18342     18340
     18344     18343     18344     18345     18345     18343     18347     18346
     18347     18348     18348     18346     18350     18349     18350     18351
     18351     18349     18353     18352     18353     18354     18354     18352
     18356     18355     18356     18357     18357     18355     18359     18358
     18359     18360     18360     18358     18362     18361     18362     18363
     18363     18361     18365     18364     18365     18366     18366     18364
     18368     18367     18368     18369     18369     18367     18371     18370
     18371     18372     18372     18370     18374     18373     18374     18375
     18375     18373     18377     18376     18377     18378     18378     18376
     18380     18379     18380     18381     18381     18379     18383     18382
     18383     18384     18384     18382     18386     18385     18386     18387
     18387     18385     18389     18388     18389     18390     18390     18388
     18392     18391     18392     18393     18393     18391     18395     18394
     18395     18396     18396     18394     18398     18397     18398     18399
     18399     18397     18401     18400     18401     18402     18402     18400
     18404     18403     18404     18405     18405     18403     18407     18406
     18407     18408     18408     18406     18410     18409     18410     18411
     18411     18409     18413     18412     18413     18414     18414     18412
     18416     18415     18416     18417     18417     18415     18419     18418
     18419     18420     18420     18418     18422     18421     18422     18423
     18423     18421     18425     18424     18425     18426     18426     18424
     18428     18427     18428     18429     18429     18427     18431     18430
     18431     18432     18432     18430     18434     18433     18434     18435
     18435     18433     18437     18436     18437     18438     18438     18436
     18440     18439     18440     18441     18441     18439     18443     18442
     18443     18444     18444     18442     18446     18445     18446     18447
     18447     18445     18449     18448     18449     18450     18450     18448
     18452     18451     18452     18453     18453     18451     18455     18454
     18455     18456     18456     18454     18458     18457     18458     18459
     18459     18457     18461     18460     18461     18462     18462     18460
     18464     18463     18464     18465     18465     18463     18467     18466
     18467     18468     18468     18466     18470     18469     18470     18471
     18471     18469     18473     18472     18473     18474     18474     18472
     18476     18475     18476     18477     18477     18475     18479     18478
     18479     18480     18480     18478     18482     18481     18482     18483
     18483     18481     18485     18484     18485     18486     18486     18484
     18488     18487     18488     18489     18489     18487     18491     18490
     18491     18492     18492     18490     18494     18493     18494     18495
     18495     18493     18497     18496     18497     18498     18498     18496
     18500     18499     18500     18501     18501     18499     18503     18502
     18503     18504     18504     18502     18506     18505     18506     18507
     18507     18505     18509     18508     18509     18510     18510     18508
     18512     18511     18512     18513     18513     18511     18515     18514
     18515     18516     18516     18514     18518     18517     18518     18519
     18519     18517     18521     18520     18521     18522     18522     18520
     18524     18523     18524     18525     18525     18523     18527     18526
     18527     18528     18528     18526     18530     18529     18530     18531
     18531     18529     18533     18532     18533     18534     18534     18532
     18536     18535     18536     18537     18537     18535     18539     18538
     18539     18540     18540     18538     18542     18541     18542     18543
     18543     18541     18545     18544     18545     18546     18546     18544
     18548     18547     18548     18549     18549     18547     18551     18550
     18551     18552     18552     18550     18554     18553     18554     18555
     18555     18553     18557     18556     18557     18558     18558     18556
     18560     18559     18560     18561     18561     18559     18563     18562
     18563     18564     18564     18562     18566     18565     18566     18567
     18567     18565     18569     18568     18569     18570     18570     18568
     18572     18571     18572     18573     18573     18571     18575     18574
     18575     18576     18576     18574     18578     18577     18578     18579
     18579     18577     18581     18580     18581     18582     18582     18580
     18584     18583     18584     18585     18585     18583     18587     18586
     18587     18588     18588     18586     18590     18589     18590     18591
     18591     18589     18593     18592     18593     18594     18594     18592
     18596     18595     18596     18597     18597     18595     18599     18598
     18599     18600     18600     18598     18602     18601     18602     18603
     18603     18601     18605     18604     18605     18606     18606     18604
     18608     18607     18608     18609     18609     18607     18611     18610
     18611     18612     18612     18610     18614     18613     18614     18615
     18615     18613     18617     18616     18617     18618     18618     18616
     18620     18619     18620     18621     18621     18619     18623     18622
     18623     18624     18624     18622     18626     18625     18626     18627
     18627     18625     18629     18628     18629     18630     18630     18628
     18632     18631     18632     18633     18633     18631     18635     18634
     18635     18636     18636     18634     18638     18637     18638     18639
     18639     18637     18641     18640     18641     18642     18642     18640
     18644     18643     18644     18645     18645     18643     18647     18646
     18647     18648     18648     18646     18650     18649     18650     18651
     18651     18649     18653     18652     18653     18654     18654     18652
     18656     18655     18656     18657     18657     18655     18659     18658
     18659     18660     18660     18658     18662     18661     18662     18663
     18663     18661     18665     18664     18665     18666     18666     18664
     18668     18667     18668     18669     18669     18667     18671     18670
     18671     18672     18672     18670     18674     18673     18674     18675
     18675     18673     18677     18676     18677     18678     18678     18676
     18680     18679     18680     18681     18681     18679     18683     18682
     18683     18684     18684     18682     18686     18685     18686     18687
     18687     18685     18689     18688     18689     18690     18690     18688
     18692     18691     18692     18693     18693     18691     18695     18694
     18695     18696     18696     18694     18698     18697     18698     18699
     18699     18697     18701     18700     18701     18702     18702     18700
     18704     18703     18704     18705     18705     18703     18707     18706
     18707     18708     18708     18706     18710     18709     18710     18711
     18711     18709     18713     18712     18713     18714     18714     18712
     18716     18715     18716     18717     18717     18715     18719     18718
     18719     18720     18720     18718     18722     18721     18722     18723
     18723     18721     18725     18724     18725     18726     18726     18724
     18728     18727     18728     18729     18729     18727     18731     18730
     18731     18732     18732     18730     18734     18733     18734     18735
     18735     18733     18737     18736     18737     18738     18738     18736
     18740     18739     18740     18741     18741     18739     18743     18742
     18743     18744     18744     18742     18746     18745     18746     18747
     18747     18745     18749     18748     18749     18750     18750     18748
     18752     18751     18752     18753     18753     18751     18755     18754
     18755     18756     18756     18754     18758     18757     18758     18759
     18759     18757     18761     18760     18761     18762     18762     18760
     18764     18763     18764     18765     18765     18763     18767     18766
     18767     18768     18768     18766     18770     18769     18770     18771
     18771     18769     18773     18772     18773     18774     18774     18772
     18776     18775     18776     18777     18777     18775     18779     18778
     18779     18780     18780     18778     18782     18781     18782     18783
     18783     18781     18785     18784     18785     18786     18786     18784
     18788     18787     18788     18789     18789     18787     18791     18790
     18791     18792     18792     18790     18794     18793     18794     18795
     18795     18793     18797     18796     18797     18798     18798     18796
     18800     18799     18800     18801     18801     18799     18803     18802
     18803     18804     18804     18802     18806     18805     18806     18807
     18807     18805     18809     18808     18809     18810     18810     18808
     18812     18811     18812     18813     18813     18811     18815     18814
     18815     18816     18816     18814     18818     18817     18818     18819
     18819     18817     18821     18820     18821     18822     18822     18820
     18824     18823     18824     18825     18825     18823     18827     18826
     18827     18828     18828     18826     18830     18829     18830     18831
     18831     18829     18833     18832     18833     18834     18834     18832
     18836     18835     18836     18837     18837     18835     18839     18838
     18839     18840     18840     18838     18842     18841     18842     18843
     18843     18841     18845     18844     18845     18846     18846     18844
     18848     18847     18848     18849     18849     18847     18851     18850
     18851     18852     18852     18850     18854     18853     18854     18855
     18855     18853     18857     18856     18857     18858     18858     18856
     18860     18859     18860     18861     18861     18859     18863     18862
     18863     18864     18864     18862     18866     18865     18866     18867
     18867     18865     18869     18868     18869     18870     18870     18868
     18872     18871     18872     18873     18873     18871     18875     18874
     18875     18876     18876     18874     18878     18877     18878     18879
     18879     18877     18881     18880     18881     18882     18882     18880
     18884     18883     18884     18885     18885     18883     18887     18886
     18887     18888     18888     18886     18890     18889     18890     18891
     18891     18889     18893     18892     18893     18894     18894     18892
     18896     18895     18896     18897     18897     18895     18899     18898
     18899     18900     18900     18898     18902     18901     18902     18903
     18903     18901     18905     18904     18905     18906     18906     18904
     18908     18907     18908     18909     18909     18907     18911     18910
     18911     18912     18912     18910     18914     18913     18914     18915
     18915     18913     18917     18916     18917     18918     18918     18916
     18920     18919     18920     18921     18921     18919     18923     18922
     18923     18924     18924     18922     18926     18925     18926     18927
     18927     18925     18929     18928     18929     18930     18930     18928
     18932     18931     18932     18933     18933     18931     18935     18934
     18935     18936     18936     18934     18938     18937     18938     18939
     18939     18937     18941     18940     18941     18942     18942     18940
     18944     18943     18944     18945     18945     18943     18947     18946
     18947     18948     18948     18946     18950     18949     18950     18951
     18951     18949     18953     18952     18953     18954     18954     18952
     18956     18955     18956     18957     18957     18955     18959     18958
     18959     18960     18960     18958     18962     18961     18962     18963
     18963     18961     18965     18964     18965     18966     18966     18964
     18968     18967     18968     18969     18969     18967     18971     18970
     18971     18972     18972     18970     18974     18973     18974     18975
     18975     18973     18977     18976     18977     18978     18978     18976
     18980     18979     18980     18981     18981     18979     18983     18982
     18983     18984     18984     18982     18986     18985     18986     18987
     18987     18985     18989     18988     18989     18990     18990     18988
     18992     18991     18992     18993     18993     18991     18995     18994
     18995     18996     18996     18994     18998     18997     18998     18999
     18999     18997     19001     19000     19001     19002     19002     19000
     19004     19003     19004     19005     19005     19003     19007     19006
     19007     19008     19008     19006     19010     19009     19010     19011
     19011     19009     19013     19012     19013     19014     19014     19012
     19016     19015     19016     19017     19017     19015     19019     19018
     19019     19020     19020     19018     19022     19021     19022     19023
     19023     19021     19025     19024     19025     19026     19026     19024
     19028     19027     19028     19029     19029     19027     19031     19030
     19031     19032     19032     19030     19034     19033     19034     19035
     19035     19033     19037     19036     19037     19038     19038     19036
     19040     19039     19040     19041     19041     19039     19043     19042
     19043     19044     19044     19042     19046     19045     19046     19047
     19047     19045     19049     19048     19049     19050     19050     19048
     19052     19051     19052     19053     19053     19051     19055     19054
     19055     19056     19056     19054     19058     19057     19058     19059
     19059     19057     19061     19060     19061     19062     19062     19060
     19064     19063     19064     19065     19065     19063     19067     19066
     19067     19068     19068     19066     19070     19069     19070     19071
     19071     19069     19073     19072     19073     19074     19074     19072
     19076     19075     19076     19077     19077     19075     19079     19078
     19079     19080     19080     19078     19082     19081     19082     19083
     19083     19081     19085     19084     19085     19086     19086     19084
     19088     19087     19088     19089     19089     19087     19091     19090
     19091     19092     19092     19090     19094     19093     19094     19095
     19095     19093     19097     19096     19097     19098     19098     19096
     19100     19099     19100     19101     19101     19099     19103     19102
     19103     19104     19104     19102     19106     19105     19106     19107
     19107     19105     19109     19108     19109     19110     19110     19108
     19112     19111     19112     19113     19113     19111     19115     19114
     19115     19116     19116     19114     19118     19117     19118     19119
     19119     19117     19121     19120     19121     19122     19122     19120
     19124     19123     19124     19125     19125     19123     19127     19126
     19127     19128     19128     19126     19130     19129     19130     19131
     19131     19129     19133     19132     19133     19134     19134     19132
     19136     19135     19136     19137     19137     19135     19139     19138
     19139     19140     19140     19138     19142     19141     19142     19143
     19143     19141     19145     19144     19145     19146     19146     19144
     19148     19147     19148     19149     19149     19147     19151     19150
     19151     19152     19152     19150     19154     19153     19154     19155
     19155     19153     19157     19156     19157     19158     19158     19156
     19160     19159     19160     19161     19161     19159     19163     19162
     19163     19164     19164     19162     19166     19165     19166     19167
     19167     19165     19169     19168     19169     19170     19170     19168
     19172     19171     19172     19173     19173     19171     19175     19174
     19175     19176     19176     19174     19178     19177     19178     19179
     19179     19177     19181     19180     19181     19182     19182     19180
     19184     19183     19184     19185     19185     19183     19187     19186
     19187     19188     19188     19186     19190     19189     19190     19191
     19191     19189     19193     19192     19193     19194     19194     19192
     19196     19195     19196     19197     19197     19195     19199     19198
     19199     19200     19200     19198     19202     19201     19202     19203
     19203     19201     19205     19204     19205     19206     19206     19204
     19208     19207     19208     19209     19209     19207     19211     19210
     19211     19212     19212     19210     19214     19213     19214     19215
     19215     19213     19217     19216     19217     19218     19218     19216
     19220     19219     19220     19221     19221     19219     19223     19222
     19223     19224     19224     19222     19226     19225     19226     19227
     19227     19225     19229     19228     19229     19230     19230     19228
     19232     19231     19232     19233     19233     19231     19235     19234
     19235     19236     19236     19234     19238     19237     19238     19239
     19239     19237     19241     19240     19241     19242     19242     19240
     19244     19243     19244     19245     19245     19243     19247     19246
     19247     19248     19248     19246     19250     19249     19250     19251
     19251     19249     19253     19252     19253     19254     19254     19252
     19256     19255     19256     19257     19257     19255     19259     19258
     19259     19260     19260     19258     19262     19261     19262     19263
     19263     19261     19265     19264     19265     19266     19266     19264
     19268     19267     19268     19269     19269     19267     19271     19270
     19271     19272     19272     19270     19274     19273     19274     19275
     19275     19273     19277     19276     19277     19278     19278     19276
     19280     19279     19280     19281     19281     19279     19283     19282
     19283     19284     19284     19282     19286     19285     19286     19287
     19287     19285     19289     19288     19289     19290     19290     19288
     19292     19291     19292     19293     19293     19291     19295     19294
     19295     19296     19296     19294     19298     19297     19298     19299
     19299     19297     19301     19300     19301     19302     19302     19300
     19304     19303     19304     19305     19305     19303     19307     19306
     19307     19308     19308     19306     19310     19309     19310     19311
     19311     19309     19313     19312     19313     19314     19314     19312
     19316     19315     19316     19317     19317     19315     19319     19318
     19319     19320     19320     19318     19322     19321     19322     19323
     19323     19321     19325     19324     19325     19326     19326     19324
     19328     19327     19328     19329     19329     19327     19331     19330
     19331     19332     19332     19330     19334     19333     19334     19335
     19335     19333     19337     19336     19337     19338     19338     19336
     19340     19339     19340     19341     19341     19339     19343     19342
     19343     19344     19344     19342     19346     19345     19346     19347
     19347     19345     19349     19348     19349     19350     19350     19348
     19352     19351     19352     19353     19353     19351     19355     19354
     19355     19356     19356     19354     19358     19357     19358     19359
     19359     19357     19361     19360     19361     19362     19362     19360
     19364     19363     19364     19365     19365     19363     19367     19366
     19367     19368     19368     19366     19370     19369     19370     19371
     19371     19369     19373     19372     19373     19374     19374     19372
     19376     19375     19376     19377     19377     19375     19379     19378
     19379     19380     19380     19378     19382     19381     19382     19383
     19383     19381     19385     19384     19385     19386     19386     19384
     19388     19387     19388     19389     19389     19387     19391     19390
     19391     19392     19392     19390     19394     19393     19394     19395
     19395     19393     19397     19396     19397     19398     19398     19396
     19400     19399     19400     19401     19401     19399     19403     19402
     19403     19404     19404     19402     19406     19405     19406     19407
     19407     19405     19409     19408     19409     19410     19410     19408
     19412     19411     19412     19413     19413     19411     19415     19414
     19415     19416     19416     19414     19418     19417     19418     19419
     19419     19417     19421     19420     19421     19422     19422     19420
     19424     19423     19424     19425     19425     19423     19427     19426
     19427     19428     19428     19426     19430     19429     19430     19431
     19431     19429     19433     19432     19433     19434     19434     19432
     19436     19435     19436     19437     19437     19435     19439     19438
     19439     19440     19440     19438     19442     19441     19442     19443
     19443     19441     19445     19444     19445     19446     19446     19444
     19448     19447     19448     19449     19449     19447     19451     19450
     19451     19452     19452     19450     19454     19453     19454     19455
     19455     19453     19457     19456     19457     19458     19458     19456
     19460     19459     19460     19461     19461     19459     19463     19462
     19463     19464     19464     19462     19466     19465     19466     19467
     19467     19465     19469     19468     19469     19470     19470     19468
     19472     19471     19472     19473     19473     19471     19475     19474
     19475     19476     19476     19474     19478     19477     19478     19479
     19479     19477     19481     19480     19481     19482     19482     19480
     19484     19483     19484     19485     19485     19483     19487     19486
     19487     19488     19488     19486     19490     19489     19490     19491
     19491     19489     19493     19492     19493     19494     19494     19492
     19496     19495     19496     19497     19497     19495     19499     19498
     19499     19500     19500     19498     19502     19501     19502     19503
     19503     19501     19505     19504     19505     19506     19506     19504
     19508     19507     19508     19509     19509     19507     19511     19510
     19511     19512     19512     19510     19514     19513     19514     19515
     19515     19513     19517     19516     19517     19518     19518     19516
     19520     19519     19520     19521     19521     19519     19523     19522
     19523     19524     19524     19522     19526     19525     19526     19527
     19527     19525     19529     19528     19529     19530     19530     19528
     19532     19531     19532     19533     19533     19531     19535     19534
     19535     19536     19536     19534     19538     19537     19538     19539
     19539     19537     19541     19540     19541     19542     19542     19540
     19544     19543     19544     19545     19545     19543     19547     19546
     19547     19548     19548     19546     19550     19549     19550     19551
     19551     19549     19553     19552     19553     19554     19554     19552
     19556     19555     19556     19557     19557     19555     19559     19558
     19559     19560     19560     19558     19562     19561     19562     19563
     19563     19561     19565     19564     19565     19566     19566     19564
     19568     19567     19568     19569     19569     19567     19571     19570
     19571     19572     19572     19570     19574     19573     19574     19575
     19575     19573     19577     19576     19577     19578     19578     19576
     19580     19579     19580     19581     19581     19579     19583     19582
     19583     19584     19584     19582     19586     19585     19586     19587
     19587     19585     19589     19588     19589     19590     19590     19588
     19592     19591     19592     19593     19593     19591     19595     19594
     19595     19596     19596     19594     19598     19597     19598     19599
     19599     19597     19601     19600     19601     19602     19602     19600
     19604     19603     19604     19605     19605     19603     19607     19606
     19607     19608     19608     19606     19610     19609     19610     19611
     19611     19609     19613     19612     19613     19614     19614     19612
     19616     19615     19616     19617     19617     19615     19619     19618
     19619     19620     19620     19618     19622     19621     19622     19623
     19623     19621     19625     19624     19625     19626     19626     19624
     19628     19627     19628     19629     19629     19627     19631     19630
     19631     19632     19632     19630     19634     19633     19634     19635
     19635     19633     19637     19636     19637     19638     19638     19636
     19640     19639     19640     19641     19641     19639     19643     19642
     19643     19644     19644     19642     19646     19645     19646     19647
     19647     19645     19649     19648     19649     19650     19650     19648
     19652     19651     19652     19653     19653     19651     19655     19654
     19655     19656     19656     19654     19658     19657     19658     19659
     19659     19657     19661     19660     19661     19662     19662     19660
     19664     19663     19664     19665     19665     19663     19667     19666
     19667     19668     19668     19666     19670     19669     19670     19671
     19671     19669     19673     19672     19673     19674     19674     19672
     19676     19675     19676     19677     19677     19675     19679     19678
     19679     19680     19680     19678     19682     19681     19682     19683
     19683     19681     19685     19684     19685     19686     19686     19684
     19688     19687     19688     19689     19689     19687     19691     19690
     19691     19692     19692     19690     19694     19693     19694     19695
     19695     19693     19697     19696     19697     19698     19698     19696
     19700     19699     19700     19701     19701     19699     19703     19702
     19703     19704     19704     19702     19706     19705     19706     19707
     19707     19705     19709     19708     19709     19710     19710     19708
     19712     19711     19712     19713     19713     19711     19715     19714
     19715     19716     19716     19714     19718     19717     19718     19719
     19719     19717     19721     19720     19721     19722     19722     19720
     19724     19723     19724     19725     19725     19723     19727     19726
     19727     19728     19728     19726     19730     19729     19730     19731
     19731     19729     19733     19732     19733     19734     19734     19732
     19736     19735     19736     19737     19737     19735     19739     19738
     19739     19740     19740     19738     19742     19741     19742     19743
     19743     19741     19745     19744     19745     19746     19746     19744
     19748     19747     19748     19749     19749     19747     19751     19750
     19751     19752     19752     19750     19754     19753     19754     19755
     19755     19753     19757     19756     19757     19758     19758     19756
     19760     19759     19760     19761     19761     19759     19763     19762
     19763     19764     19764     19762     19766     19765     19766     19767
     19767     19765     19769     19768     19769     19770     19770     19768
     19772     19771     19772     19773     19773     19771     19775     19774
     19775     19776     19776     19774     19778     19777     19778     19779
     19779     19777     19781     19780     19781     19782     19782     19780
     19784     19783     19784     19785     19785     19783     19787     19786
     19787     19788     19788     19786     19790     19789     19790     19791
     19791     19789     19793     19792     19793     19794     19794     19792
     19796     19795     19796     19797     19797     19795     19799     19798
     19799     19800     19800     19798     19802     19801     19802     19803
     19803     19801     19805     19804     19805     19806     19806     19804
     19808     19807     19808     19809     19809     19807     19811     19810
     19811     19812     19812     19810     19814     19813     19814     19815
     19815     19813     19817     19816     19817     19818     19818     19816
     19820     19819     19820     19821     19821     19819     19823     19822
     19823     19824     19824     19822     19826     19825     19826     19827
     19827     19825     19829     19828     19829     19830     19830     19828
     19832     19831     19832     19833     19833     19831     19835     19834
     19835     19836     19836     19834     19838     19837     19838     19839
     19839     19837     19841     19840     19841     19842     19842     19840
     19844     19843     19844     19845     19845     19843     19847     19846
     19847     19848     19848     19846     19850     19849     19850     19851
     19851     19849     19853     19852     19853     19854     19854     19852
     19856     19855     19856     19857     19857     19855     19859     19858
     19859     19860     19860     19858     19862     19861     19862     19863
     19863     19861     19865     19864     19865     19866     19866     19864
     19868     19867     19868     19869     19869     19867     19871     19870
     19871     19872     19872     19870     19874     19873     19874     19875
     19875     19873     19877     19876     19877     19878     19878     19876
     19880     19879     19880     19881     19881     19879     19883     19882
     19883     19884     19884     19882     19886     19885     19886     19887
     19887     19885     19889     19888     19889     19890     19890     19888
     19892     19891     19892     19893     19893     19891     19895     19894
     19895     19896     19896     19894     19898     19897     19898     19899
     19899     19897     19901     19900     19901     19902     19902     19900
     19904     19903     19904     19905     19905     19903     19907     19906
     19907     19908     19908     19906     19910     19909     19910     19911
     19911     19909     19913     19912     19913     19914     19914     19912
     19916     19915     19916     19917     19917     19915     19919     19918
     19919     19920     19920     19918     19922     19921     19922     19923
     19923     19921     19925     19924     19925     19926     19926     19924
     19928     19927     19928     19929     19929     19927     19931     19930
     19931     19932     19932     19930     19934     19933     19934     19935
     19935     19933     19937     19936     19937     19938     19938     19936
     19940     19939     19940     19941     19941     19939     19943     19942
     19943     19944     19944     19942     19946     19945     19946     19947
     19947     19945     19949     19948     19949     19950     19950     19948
     19952     19951     19952     19953     19953     19951     19955     19954
     19955     19956     19956     19954     19958     19957     19958     19959
     19959     19957     19961     19960     19961     19962     19962     19960
     19964     19963     19964     19965     19965     19963     19967     19966
     19967     19968     19968     19966     19970     19969     19970     19971
     19971     19969     19973     19972     19973     19974     19974     19972
     19976     19975     19976     19977     19977     19975     19979     19978
     19979     19980     19980     19978     19982     19981     19982     19983
     19983     19981     19985     19984     19985     19986     19986     19984
     19988     19987     19988     19989     19989     19987     19991     19990
     19991     19992     19992     19990     19994     19993     19994     19995
     19995     19993     19997     19996     19997     19998     19998     19996
     20000     19999     20000     20001     20001     19999     20003     20002
     20003     20004     20004     20002     20006     20005     20006     20007
     20007     20005     20009     20008     20009     20010     20010     20008
     20012     20011     20012     20013     20013     20011     20015     20014
     20015     20016     20016     20014     20018     20017     20018     20019
     20019     20017     20021     20020     20021     20022     20022     20020
     20024     20023     20024     20025     20025     20023     20027     20026
     20027     20028     20028     20026     20030     20029     20030     20031
     20031     20029     20033     20032     20033     20034     20034     20032
     20036     20035     20036     20037     20037     20035     20039     20038
     20039     20040     20040     20038     20042     20041     20042     20043
     20043     20041     20045     20044     20045     20046     20046     20044
     20048     20047     20048     20049     20049     20047     20051     20050
     20051     20052     20052     20050     20054     20053     20054     20055
     20055     20053     20057     20056     20057     20058     20058     20056
     20060     20059     20060     20061     20061     20059     20063     20062
     20063     20064     20064     20062     20066     20065     20066     20067
     20067     20065     20069     20068     20069     20070     20070     20068
     20072     20071     20072     20073     20073     20071     20075     20074
     20075     20076     20076     20074     20078     20077     20078     20079
     20079     20077     20081     20080     20081     20082     20082     20080
     20084     20083     20084     20085     20085     20083     20087     20086
     20087     20088     20088     20086     20090     20089     20090     20091
     20091     20089     20093     20092     20093     20094     20094     20092
     20096     20095     20096     20097     20097     20095     20099     20098
     20099     20100     20100     20098     20102     20101     20102     20103
     20103     20101     20105     20104     20105     20106     20106     20104
     20108     20107     20108     20109     20109     20107     20111     20110
     20111     20112     20112     20110     20114     20113     20114     20115
     20115     20113     20117     20116     20117     20118     20118     20116
     20120     20119     20120     20121     20121     20119     20123     20122
     20123     20124     20124     20122     20126     20125     20126     20127
     20127     20125     20129     20128     20129     20130     20130     20128
     20132     20131     20132     20133     20133     20131     20135     20134
     20135     20136     20136     20134     20138     20137     20138     20139
     20139     20137     20141     20140     20141     20142     20142     20140
     20144     20143     20144     20145     20145     20143     20147     20146
     20147     20148     20148     20146     20150     20149     20150     20151
     20151     20149     20153     20152     20153     20154     20154     20152
     20156     20155     20156     20157     20157     20155     20159     20158
     20159     20160     20160     20158     20162     20161     20162     20163
     20163     20161     20165     20164     20165     20166     20166     20164
     20168     20167     20168     20169     20169     20167     20171     20170
     20171     20172     20172     20170     20174     20173     20174     20175
     20175     20173     20177     20176     20177     20178     20178     20176
     20180     20179     20180     20181     20181     20179     20183     20182
     20183     20184     20184     20182     20186     20185     20186     20187
     20187     20185     20189     20188     20189     20190     20190     20188
     20192     20191     20192     20193     20193     20191     20195     20194
     20195     20196     20196     20194     20198     20197     20198     20199
     20199     20197     20201     20200     20201     20202     20202     20200
     20204     20203     20204     20205     20205     20203     20207     20206
     20207     20208     20208     20206     20210     20209     20210     20211
     20211     20209     20213     20212     20213     20214     20214     20212
     20216     20215     20216     20217     20217     20215     20219     20218
     20219     20220     20220     20218     20222     20221     20222     20223
     20223     20221     20225     20224     20225     20226     20226     20224
     20228     20227     20228     20229     20229     20227     20231     20230
     20231     20232     20232     20230     20234     20233     20234     20235
     20235     20233     20237     20236     20237     20238     20238     20236
     20240     20239     20240     20241     20241     20239     20243     20242
     20243     20244     20244     20242     20246     20245     20246     20247
     20247     20245     20249     20248     20249     20250     20250     20248
     20252     20251     20252     20253     20253     20251     20255     20254
     20255     20256     20256     20254     20258     20257     20258     20259
     20259     20257     20261     20260     20261     20262     20262     20260
     20264     20263     20264     20265     20265     20263     20267     20266
     20267     20268     20268     20266     20270     20269     20270     20271
     20271     20269     20273     20272     20273     20274     20274     20272
     20276     20275     20276     20277     20277     20275     20279     20278
     20279     20280     20280     20278     20282     20281     20282     20283
     20283     20281     20285     20284     20285     20286     20286     20284
     20288     20287     20288     20289     20289     20287     20291     20290
     20291     20292     20292     20290     20294     20293     20294     20295
     20295     20293     20297     20296     20297     20298     20298     20296
     20300     20299     20300     20301     20301     20299     20303     20302
     20303     20304     20304     20302     20306     20305     20306     20307
     20307     20305     20309     20308     20309     20310     20310     20308
     20312     20311     20312     20313     20313     20311     20315     20314
     20315     20316     20316     20314     20318     20317     20318     20319
     20319     20317     20321     20320     20321     20322     20322     20320
     20324     20323     20324     20325     20325     20323     20327     20326
     20327     20328     20328     20326     20330     20329     20330     20331
     20331     20329     20333     20332     20333     20334     20334     20332
     20336     20335     20336     20337     20337     20335     20339     20338
     20339     20340     20340     20338     20342     20341     20342     20343
     20343     20341     20345     20344     20345     20346     20346     20344
     20348     20347     20348     20349     20349     20347     20351     20350
     20351     20352     20352     20350     20354     20353     20354     20355
     20355     20353     20357     20356     20357     20358     20358     20356
     20360     20359     20360     20361     20361     20359     20363     20362
     20363     20364     20364     20362     20366     20365     20366     20367
     20367     20365     20369     20368     20369     20370     20370     20368
     20372     20371     20372     20373     20373     20371     20375     20374
     20375     20376     20376     20374     20378     20377     20378     20379
     20379     20377     20381     20380     20381     20382     20382     20380
     20384     20383     20384     20385     20385     20383     20387     20386
     20387     20388     20388     20386     20390     20389     20390     20391
     20391     20389     20393     20392     20393     20394     20394     20392
     20396     20395     20396     20397     20397     20395     20399     20398
     20399     20400     20400     20398     20402     20401     20402     20403
     20403     20401     20405     20404     20405     20406     20406     20404
     20408     20407     20408     20409     20409     20407     20411     20410
     20411     20412     20412     20410     20414     20413     20414     20415
     20415     20413     20417     20416     20417     20418     20418     20416
     20420     20419     20420     20421     20421     20419     20423     20422
     20423     20424     20424     20422     20426     20425     20426     20427
     20427     20425     20429     20428     20429     20430     20430     20428
     20432     20431     20432     20433     20433     20431     20435     20434
     20435     20436     20436     20434     20438     20437     20438     20439
     20439     20437     20441     20440     20441     20442     20442     20440
     20444     20443     20444     20445     20445     20443     20447     20446
     20447     20448     20448     20446     20450     20449     20450     20451
     20451     20449     20453     20452     20453     20454     20454     20452
     20456     20455     20456     20457     20457     20455     20459     20458
     20459     20460     20460     20458     20462     20461     20462     20463
     20463     20461     20465     20464     20465     20466     20466     20464
     20468     20467     20468     20469     20469     20467     20471     20470
     20471     20472     20472     20470     20474     20473     20474     20475
     20475     20473     20477     20476     20477     20478     20478     20476
     20480     20479     20480     20481     20481     20479     20483     20482
     20483     20484     20484     20482     20486     20485     20486     20487
     20487     20485     20489     20488     20489     20490     20490     20488
     20492     20491     20492     20493     20493     20491     20495     20494
     20495     20496     20496     20494     20498     20497     20498     20499
     20499     20497     20501     20500     20501     20502     20502     20500
     20504     20503     20504     20505     20505     20503     20507     20506
     20507     20508     20508     20506     20510     20509     20510     20511
     20511     20509     20513     20512     20513     20514     20514     20512
     20516     20515     20516     20517     20517     20515     20519     20518
     20519     20520     20520     20518     20522     20521     20522     20523
     20523     20521     20525     20524     20525     20526     20526     20524
     20528     20527     20528     20529     20529     20527     20531     20530
     20531     20532     20532     20530     20534     20533     20534     20535
     20535     20533     20537     20536     20537     20538     20538     20536
     20540     20539     20540     20541     20541     20539     20543     20542
     20543     20544     20544     20542     20546     20545     20546     20547
     20547     20545     20549     20548     20549     20550     20550     20548
     20552     20551     20552     20553     20553     20551     20555     20554
     20555     20556     20556     20554     20558     20557     20558     20559
     20559     20557     20561     20560     20561     20562     20562     20560
     20564     20563     20564     20565     20565     20563     20567     20566
     20567     20568     20568     20566     20570     20569     20570     20571
     20571     20569     20573     20572     20573     20574     20574     20572
     20576     20575     20576     20577     20577     20575     20579     20578
     20579     20580     20580     20578     20582     20581     20582     20583
     20583     20581     20585     20584     20585     20586     20586     20584
     20588     20587     20588     20589     20589     20587     20591     20590
     20591     20592     20592     20590     20594     20593     20594     20595
     20595     20593     20597     20596     20597     20598     20598     20596
     20600     20599     20600     20601     20601     20599     20603     20602
     20603     20604     20604     20602     20606     20605     20606     20607
     20607     20605     20609     20608     20609     20610     20610     20608
     20612     20611     20612     20613     20613     20611     20615     20614
     20615     20616     20616     20614     20618     20617     20618     20619
     20619     20617     20621     20620     20621     20622     20622     20620
     20624     20623     20624     20625     20625     20623     20627     20626
     20627     20628     20628     20626     20630     20629     20630     20631
     20631     20629     20633     20632     20633     20634     20634     20632
     20636     20635     20636     20637     20637     20635     20639     20638
     20639     20640     20640     20638     20642     20641     20642     20643
     20643     20641     20645     20644     20645     20646     20646     20644
     20648     20647     20648     20649     20649     20647     20651     20650
     20651     20652     20652     20650     20654     20653     20654     20655
     20655     20653     20657     20656     20657     20658     20658     20656
     20660     20659     20660     20661     20661     20659     20663     20662
     20663     20664     20664     20662     20666     20665     20666     20667
     20667     20665     20669     20668     20669     20670     20670     20668
     20672     20671     20672     20673     20673     20671     20675     20674
     20675     20676     20676     20674     20678     20677     20678     20679
     20679     20677     20681     20680     20681     20682     20682     20680
     20684     20683     20684     20685     20685     20683     20687     20686
     20687     20688     20688     20686     20690     20689     20690     20691
     20691     20689     20693     20692     20693     20694     20694     20692
     20696     20695     20696     20697     20697     20695     20699     20698
     20699     20700     20700     20698     20702     20701     20702     20703
     20703     20701     20705     20704     20705     20706     20706     20704
     20708     20707     20708     20709     20709     20707     20711     20710
     20711     20712     20712     20710     20714     20713     20714     20715
     20715     20713     20717     20716     20717     20718     20718     20716
     20720     20719     20720     20721     20721     20719     20723     20722
     20723     20724     20724     20722     20726     20725     20726     20727
     20727     20725     20729     20728     20729     20730     20730     20728
     20732     20731     20732     20733     20733     20731     20735     20734
     20735     20736     20736     20734     20738     20737     20738     20739
     20739     20737     20741     20740     20741     20742     20742     20740
     20744     20743     20744     20745     20745     20743     20747     20746
     20747     20748     20748     20746     20750     20749     20750     20751
     20751     20749     20753     20752     20753     20754     20754     20752
     20756     20755     20756     20757     20757     20755     20759     20758
     20759     20760     20760     20758     20762     20761     20762     20763
     20763     20761     20765     20764     20765     20766     20766     20764
     20768     20767     20768     20769     20769     20767     20771     20770
     20771     20772     20772     20770     20774     20773     20774     20775
     20775     20773     20777     20776     20777     20778     20778     20776
     20780     20779     20780     20781     20781     20779     20783     20782
     20783     20784     20784     20782     20786     20785     20786     20787
     20787     20785     20789     20788     20789     20790     20790     20788
     20792     20791     20792     20793     20793     20791     20795     20794
     20795     20796     20796     20794     20798     20797     20798     20799
     20799     20797     20801     20800     20801     20802     20802     20800
     20804     20803     20804     20805     20805     20803     20807     20806
     20807     20808     20808     20806     20810     20809     20810     20811
     20811     20809     20813     20812     20813     20814     20814     20812
     20816     20815     20816     20817     20817     20815     20819     20818
     20819     20820     20820     20818     20822     20821     20822     20823
     20823     20821     20825     20824     20825     20826     20826     20824
     20828     20827     20828     20829     20829     20827     20831     20830
     20831     20832     20832     20830     20834     20833     20834     20835
     20835     20833     20837     20836     20837     20838     20838     20836
     20840     20839     20840     20841     20841     20839     20843     20842
     20843     20844     20844     20842     20846     20845     20846     20847
     20847     20845     20849     20848     20849     20850     20850     20848
     20852     20851     20852     20853     20853     20851     20855     20854
     20855     20856     20856     20854     20858     20857     20858     20859
     20859     20857     20861     20860     20861     20862     20862     20860
     20864     20863     20864     20865     20865     20863     20867     20866
     20867     20868     20868     20866     20870     20869     20870     20871
     20871     20869     20873     20872     20873     20874     20874     20872
     20876     20875     20876     20877     20877     20875     20879     20878
     20879     20880     20880     20878     20882     20881     20882     20883
     20883     20881     20885     20884     20885     20886     20886     20884
     20888     20887     20888     20889     20889     20887     20891     20890
     20891     20892     20892     20890     20894     20893     20894     20895
     20895     20893     20897     20896     20897     20898     20898     20896
     20900     20899     20900     20901     20901     20899     20903     20902
     20903     20904     20904     20902     20906     20905     20906     20907
     20907     20905     20909     20908     20909     20910     20910     20908
     20912     20911     20912     20913     20913     20911     20915     20914
     20915     20916     20916     20914     20918     20917     20918     20919
     20919     20917     20921     20920     20921     20922     20922     20920
     20924     20923     20924     20925     20925     20923     20927     20926
     20927     20928     20928     20926     20930     20929     20930     20931
     20931     20929     20933     20932     20933     20934     20934     20932
     20936     20935     20936     20937     20937     20935     20939     20938
     20939     20940     20940     20938     20942     20941     20942     20943
     20943     20941     20945     20944     20945     20946     20946     20944
     20948     20947     20948     20949     20949     20947     20951     20950
     20951     20952     20952     20950     20954     20953     20954     20955
     20955     20953     20957     20956     20957     20958     20958     20956
     20960     20959     20960     20961     20961     20959     20963     20962
     20963     20964     20964     20962     20966     20965     20966     20967
     20967     20965     20969     20968     20969     20970     20970     20968
     20972     20971     20972     20973     20973     20971     20975     20974
     20975     20976     20976     20974     20978     20977     20978     20979
     20979     20977     20981     20980     20981     20982     20982     20980
     20984     20983     20984     20985     20985     20983     20987     20986
     20987     20988     20988     20986     20990     20989     20990     20991
     20991     20989     20993     20992     20993     20994     20994     20992
     20996     20995     20996     20997     20997     20995     20999     20998
     20999     21000     21000     20998     21002     21001     21002     21003
     21003     21001     21005     21004     21005     21006     21006     21004
     21008     21007     21008     21009     21009     21007     21011     21010
     21011     21012     21012     21010     21014     21013     21014     21015
     21015     21013     21017     21016     21017     21018     21018     21016
     21020     21019     21020     21021     21021     21019     21023     21022
     21023     21024     21024     21022     21026     21025     21026     21027
     21027     21025     21029     21028     21029     21030     21030     21028
     21032     21031     21032     21033     21033     21031     21035     21034
     21035     21036     21036     21034     21038     21037     21038     21039
     21039     21037     21041     21040     21041     21042     21042     21040
     21044     21043     21044     21045     21045     21043     21047     21046
     21047     21048     21048     21046     21050     21049     21050     21051
     21051     21049     21053     21052     21053     21054     21054     21052
     21056     21055     21056     21057     21057     21055     21059     21058
     21059     21060     21060     21058     21062     21061     21062     21063
     21063     21061     21065     21064     21065     21066     21066     21064
     21068     21067     21068     21069     21069     21067     21071     21070
     21071     21072     21072     21070     21074     21073     21074     21075
     21075     21073     21077     21076     21077     21078     21078     21076
     21080     21079     21080     21081     21081     21079     21083     21082
     21083     21084     21084     21082     21086     21085     21086     21087
     21087     21085     21089     21088     21089     21090     21090     21088
     21092     21091     21092     21093     21093     21091     21095     21094
     21095     21096     21096     21094     21098     21097     21098     21099
     21099     21097     21101     21100     21101     21102     21102     21100
     21104     21103     21104     21105     21105     21103     21107     21106
     21107     21108     21108     21106     21110     21109     21110     21111
     21111     21109     21113     21112     21113     21114     21114     21112
     21116     21115     21116     21117     21117     21115     21119     21118
     21119     21120     21120     21118     21122     21121     21122     21123
     21123     21121     21125     21124     21125     21126     21126     21124
     21128     21127     21128     21129     21129     21127     21131     21130
     21131     21132     21132     21130     21134     21133     21134     21135
     21135     21133     21137     21136     21137     21138     21138     21136
     21140     21139     21140     21141     21141     21139     21143     21142
     21143     21144     21144     21142     21146     21145     21146     21147
     21147     21145     21149     21148     21149     21150     21150     21148
     21152     21151     21152     21153     21153     21151     21155     21154
     21155     21156     21156     21154     21158     21157     21158     21159
     21159     21157     21161     21160     21161     21162     21162     21160
     21164     21163     21164     21165     21165     21163     21167     21166
     21167     21168     21168     21166     21170     21169     21170     21171
     21171     21169     21173     21172     21173     21174     21174     21172
     21176     21175     21176     21177     21177     21175     21179     21178
     21179     21180     21180     21178     21182     21181     21182     21183
     21183     21181     21185     21184     21185     21186     21186     21184
     21188     21187     21188     21189     21189     21187     21191     21190
     21191     21192     21192     21190     21194     21193     21194     21195
     21195     21193     21197     21196     21197     21198     21198     21196
     21200     21199     21200     21201     21201     21199     21203     21202
     21203     21204     21204     21202     21206     21205     21206     21207
     21207     21205     21209     21208     21209     21210     21210     21208
     21212     21211     21212     21213     21213     21211     21215     21214
     21215     21216     21216     21214     21218     21217     21218     21219
     21219     21217     21221     21220     21221     21222     21222     21220
     21224     21223     21224     21225     21225     21223     21227     21226
     21227     21228     21228     21226     21230     21229     21230     21231
     21231     21229     21233     21232     21233     21234     21234     21232
     21236     21235     21236     21237     21237     21235     21239     21238
     21239     21240     21240     21238     21242     21241     21242     21243
     21243     21241     21245     21244     21245     21246     21246     21244
     21248     21247     21248     21249     21249     21247     21251     21250
     21251     21252     21252     21250     21254     21253     21254     21255
     21255     21253     21257     21256     21257     21258     21258     21256
     21260     21259     21260     21261     21261     21259     21263     21262
     21263     21264     21264     21262     21266     21265     21266     21267
     21267     21265     21269     21268     21269     21270     21270     21268
     21272     21271     21272     21273     21273     21271     21275     21274
     21275     21276     21276     21274     21278     21277     21278     21279
     21279     21277     21281     21280     21281     21282     21282     21280
     21284     21283     21284     21285     21285     21283     21287     21286
     21287     21288     21288     21286     21290     21289     21290     21291
     21291     21289     21293     21292     21293     21294     21294     21292
     21296     21295     21296     21297     21297     21295     21299     21298
     21299     21300     21300     21298     21302     21301     21302     21303
     21303     21301     21305     21304     21305     21306     21306     21304
     21308     21307     21308     21309     21309     21307     21311     21310
     21311     21312     21312     21310     21314     21313     21314     21315
     21315     21313     21317     21316     21317     21318     21318     21316
     21320     21319     21320     21321     21321     21319     21323     21322
     21323     21324     21324     21322     21326     21325     21326     21327
     21327     21325     21329     21328     21329     21330     21330     21328
     21332     21331     21332     21333     21333     21331     21335     21334
     21335     21336     21336     21334     21338     21337     21338     21339
     21339     21337     21341     21340     21341     21342     21342     21340
     21344     21343     21344     21345     21345     21343     21347     21346
     21347     21348     21348     21346     21350     21349     21350     21351
     21351     21349     21353     21352     21353     21354     21354     21352
     21356     21355     21356     21357     21357     21355     21359     21358
     21359     21360     21360     21358     21362     21361     21362     21363
     21363     21361     21365     21364     21365     21366     21366     21364
     21368     21367     21368     21369     21369     21367     21371     21370
     21371     21372     21372     21370     21374     21373     21374     21375
     21375     21373     21377     21376     21377     21378     21378     21376
     21380     21379     21380     21381     21381     21379     21383     21382
     21383     21384     21384     21382     21386     21385     21386     21387
     21387     21385     21389     21388     21389     21390     21390     21388
     21392     21391     21392     21393     21393     21391     21395     21394
     21395     21396     21396     21394     21398     21397     21398     21399
     21399     21397     21401     21400     21401     21402     21402     21400
     21404     21403     21404     21405     21405     21403     21407     21406
     21407     21408     21408     21406     21410     21409     21410     21411
     21411     21409     21413     21412     21413     21414     21414     21412
     21416     21415     21416     21417     21417     21415     21419     21418
     21419     21420     21420     21418     21422     21421     21422     21423
     21423     21421     21425     21424     21425     21426     21426     21424
     21428     21427     21428     21429     21429     21427     21431     21430
     21431     21432     21432     21430     21434     21433     21434     21435
     21435     21433     21437     21436     21437     21438     21438     21436
     21440     21439     21440     21441     21441     21439     21443     21442
     21443     21444     21444     21442     21446     21445     21446     21447
     21447     21445     21449     21448     21449     21450     21450     21448
     21452     21451     21452     21453     21453     21451     21455     21454
     21455     21456     21456     21454     21458     21457     21458     21459
     21459     21457     21461     21460     21461     21462     21462     21460
     21464     21463     21464     21465     21465     21463     21467     21466
     21467     21468     21468     21466     21470     21469     21470     21471
     21471     21469     21473     21472     21473     21474     21474     21472
     21476     21475     21476     21477     21477     21475     21479     21478
     21479     21480     21480     21478     21482     21481     21482     21483
     21483     21481     21485     21484     21485     21486     21486     21484
     21488     21487     21488     21489     21489     21487     21491     21490
     21491     21492     21492     21490     21494     21493     21494     21495
     21495     21493     21497     21496     21497     21498     21498     21496
     21500     21499     21500     21501     21501     21499     21503     21502
     21503     21504     21504     21502     21506     21505     21506     21507
     21507     21505     21509     21508     21509     21510     21510     21508
     21512     21511     21512     21513     21513     21511     21515     21514
     21515     21516     21516     21514     21518     21517     21518     21519
     21519     21517     21521     21520     21521     21522     21522     21520
     21524     21523     21524     21525     21525     21523     21527     21526
     21527     21528     21528     21526     21530     21529     21530     21531
     21531     21529     21533     21532     21533     21534     21534     21532
     21536     21535     21536     21537     21537     21535     21539     21538
     21539     21540     21540     21538     21542     21541     21542     21543
     21543     21541     21545     21544     21545     21546     21546     21544
     21548     21547     21548     21549     21549     21547     21551     21550
     21551     21552     21552     21550     21554     21553     21554     21555
     21555     21553     21557     21556     21557     21558     21558     21556
     21560     21559     21560     21561     21561     21559     21563     21562
     21563     21564     21564     21562     21566     21565     21566     21567
     21567     21565     21569     21568     21569     21570     21570     21568
     21572     21571     21572     21573     21573     21571     21575     21574
     21575     21576     21576     21574     21578     21577     21578     21579
     21579     21577     21581     21580     21581     21582     21582     21580
     21584     21583     21584     21585     21585     21583     21587     21586
     21587     21588     21588     21586     21590     21589     21590     21591
     21591     21589     21593     21592     21593     21594     21594     21592
     21596     21595     21596     21597     21597     21595     21599     21598
     21599     21600     21600     21598     21602     21601     21602     21603
     21603     21601     21605     21604     21605     21606     21606     21604
     21608     21607     21608     21609     21609     21607     21611     21610
     21611     21612     21612     21610     21614     21613     21614     21615
     21615     21613     21617     21616     21617     21618     21618     21616
     21620     21619     21620     21621     21621     21619     21623     21622
     21623     21624     21624     21622     21626     21625     21626     21627
     21627     21625     21629     21628     21629     21630     21630     21628
     21632     21631     21632     21633     21633     21631     21635     21634
     21635     21636     21636     21634     21638     21637     21638     21639
     21639     21637     21641     21640     21641     21642     21642     21640
     21644     21643     21644     21645     21645     21643     21647     21646
     21647     21648     21648     21646     21650     21649     21650     21651
     21651     21649     21653     21652     21653     21654     21654     21652
     21656     21655     21656     21657     21657     21655     21659     21658
     21659     21660     21660     21658     21662     21661     21662     21663
     21663     21661     21665     21664     21665     21666     21666     21664
     21668     21667     21668     21669     21669     21667     21671     21670
     21671     21672     21672     21670     21674     21673     21674     21675
     21675     21673     21677     21676     21677     21678     21678     21676
     21680     21679     21680     21681     21681     21679     21683     21682
     21683     21684     21684     21682     21686     21685     21686     21687
     21687     21685     21689     21688     21689     21690     21690     21688
     21692     21691     21692     21693     21693     21691     21695     21694
     21695     21696     21696     21694     21698     21697     21698     21699
     21699     21697     21701     21700     21701     21702     21702     21700
     21704     21703     21704     21705     21705     21703     21707     21706
     21707     21708     21708     21706     21710     21709     21710     21711
     21711     21709     21713     21712     21713     21714     21714     21712
     21716     21715     21716     21717     21717     21715     21719     21718
     21719     21720     21720     21718     21722     21721     21722     21723
     21723     21721     21725     21724     21725     21726     21726     21724
     21728     21727     21728     21729     21729     21727     21731     21730
     21731     21732     21732     21730     21734     21733     21734     21735
     21735     21733     21737     21736     21737     21738     21738     21736
     21740     21739     21740     21741     21741     21739     21743     21742
     21743     21744     21744     21742     21746     21745     21746     21747
     21747     21745     21749     21748     21749     21750     21750     21748
     21752     21751     21752     21753     21753     21751     21755     21754
     21755     21756     21756     21754     21758     21757     21758     21759
     21759     21757     21761     21760     21761     21762     21762     21760
     21764     21763     21764     21765     21765     21763     21767     21766
     21767     21768     21768     21766     21770     21769     21770     21771
     21771     21769     21773     21772     21773     21774     21774     21772
     21776     21775     21776     21777     21777     21775     21779     21778
     21779     21780     21780     21778     21782     21781     21782     21783
     21783     21781     21785     21784     21785     21786     21786     21784
     21788     21787     21788     21789     21789     21787     21791     21790
     21791     21792     21792     21790     21794     21793     21794     21795
     21795     21793     21797     21796     21797     21798     21798     21796
     21800     21799     21800     21801     21801     21799     21803     21802
     21803     21804     21804     21802     21806     21805     21806     21807
     21807     21805     21809     21808     21809     21810     21810     21808
     21812     21811     21812     21813     21813     21811     21815     21814
     21815     21816     21816     21814     21818     21817     21818     21819
     21819     21817     21821     21820     21821     21822     21822     21820
     21824     21823     21824     21825     21825     21823     21827     21826
     21827     21828     21828     21826     21830     21829     21830     21831
     21831     21829     21833     21832     21833     21834     21834     21832
     21836     21835     21836     21837     21837     21835     21839     21838
     21839     21840     21840     21838     21842     21841     21842     21843
     21843     21841     21845     21844     21845     21846     21846     21844
     21848     21847     21848     21849     21849     21847     21851     21850
     21851     21852     21852     21850     21854     21853     21854     21855
     21855     21853     21857     21856     21857     21858     21858     21856
     21860     21859     21860     21861     21861     21859     21863     21862
     21863     21864     21864     21862     21866     21865     21866     21867
     21867     21865     21869     21868     21869     21870     21870     21868
     21872     21871     21872     21873     21873     21871     21875     21874
     21875     21876     21876     21874     21878     21877     21878     21879
     21879     21877     21881     21880     21881     21882     21882     21880
     21884     21883     21884     21885     21885     21883     21887     21886
     21887     21888     21888     21886     21890     21889     21890     21891
     21891     21889     21893     21892     21893     21894     21894     21892
     21896     21895     21896     21897     21897     21895     21899     21898
     21899     21900     21900     21898     21902     21901     21902     21903
     21903     21901     21905     21904     21905     21906     21906     21904
     21908     21907     21908     21909     21909     21907     21911     21910
     21911     21912     21912     21910     21914     21913     21914     21915
     21915     21913     21917     21916     21917     21918     21918     21916
     21920     21919     21920     21921     21921     21919     21923     21922
     21923     21924     21924     21922     21926     21925     21926     21927
     21927     21925     21929     21928     21929     21930     21930     21928
     21932     21931     21932     21933     21933     21931     21935     21934
     21935     21936     21936     21934     21938     21937     21938     21939
     21939     21937     21941     21940     21941     21942     21942     21940
     21944     21943     21944     21945     21945     21943     21947     21946
     21947     21948     21948     21946     21950     21949     21950     21951
     21951     21949     21953     21952     21953     21954     21954     21952
     21956     21955     21956     21957     21957     21955     21959     21958
     21959     21960     21960     21958     21962     21961     21962     21963
     21963     21961     21965     21964     21965     21966     21966     21964
     21968     21967     21968     21969     21969     21967     21971     21970
     21971     21972     21972     21970     21974     21973     21974     21975
     21975     21973     21977     21976     21977     21978     21978     21976
     21980     21979     21980     21981     21981     21979     21983     21982
     21983     21984     21984     21982     21986     21985     21986     21987
     21987     21985     21989     21988     21989     21990     21990     21988
     21992     21991     21992     21993     21993     21991     21995     21994
     21995     21996     21996     21994     21998     21997     21998     21999
     21999     21997     22001     22000     22001     22002     22002     22000
     22004     22003     22004     22005     22005     22003     22007     22006
     22007     22008     22008     22006     22010     22009     22010     22011
     22011     22009     22013     22012     22013     22014     22014     22012
     22016     22015     22016     22017     22017     22015     22019     22018
     22019     22020     22020     22018     22022     22021     22022     22023
     22023     22021     22025     22024     22025     22026     22026     22024
     22028     22027     22028     22029     22029     22027     22031     22030
     22031     22032     22032     22030     22034     22033     22034     22035
     22035     22033     22037     22036     22037     22038     22038     22036
     22040     22039     22040     22041     22041     22039     22043     22042
     22043     22044     22044     22042     22046     22045     22046     22047
     22047     22045     22049     22048     22049     22050     22050     22048
     22052     22051     22052     22053     22053     22051     22055     22054
     22055     22056     22056     22054     22058     22057     22058     22059
     22059     22057     22061     22060     22061     22062     22062     22060
     22064     22063     22064     22065     22065     22063     22067     22066
     22067     22068     22068     22066     22070     22069     22070     22071
     22071     22069     22073     22072     22073     22074     22074     22072
     22076     22075     22076     22077     22077     22075     22079     22078
     22079     22080     22080     22078     22082     22081     22082     22083
     22083     22081     22085     22084     22085     22086     22086     22084
     22088     22087     22088     22089     22089     22087     22091     22090
     22091     22092     22092     22090     22094     22093     22094     22095
     22095     22093     22097     22096     22097     22098     22098     22096
     22100     22099     22100     22101     22101     22099     22103     22102
     22103     22104     22104     22102     22106     22105     22106     22107
     22107     22105     22109     22108     22109     22110     22110     22108
     22112     22111     22112     22113     22113     22111     22115     22114
     22115     22116     22116     22114     22118     22117     22118     22119
     22119     22117     22121     22120     22121     22122     22122     22120
     22124     22123     22124     22125     22125     22123     22127     22126
     22127     22128     22128     22126     22130     22129     22130     22131
     22131     22129     22133     22132     22133     22134     22134     22132
     22136     22135     22136     22137     22137     22135     22139     22138
     22139     22140     22140     22138     22142     22141     22142     22143
     22143     22141     22145     22144     22145     22146     22146     22144
     22148     22147     22148     22149     22149     22147     22151     22150
     22151     22152     22152     22150     22154     22153     22154     22155
     22155     22153     22157     22156     22157     22158     22158     22156
     22160     22159     22160     22161     22161     22159     22163     22162
     22163     22164     22164     22162     22166     22165     22166     22167
     22167     22165     22169     22168     22169     22170     22170     22168
     22172     22171     22172     22173     22173     22171     22175     22174
     22175     22176     22176     22174     22178     22177     22178     22179
     22179     22177     22181     22180     22181     22182     22182     22180
     22184     22183     22184     22185     22185     22183     22187     22186
     22187     22188     22188     22186     22190     22189     22190     22191
     22191     22189     22193     22192     22193     22194     22194     22192
     22196     22195     22196     22197     22197     22195     22199     22198
     22199     22200     22200     22198     22202     22201     22202     22203
     22203     22201     22205     22204     22205     22206     22206     22204
     22208     22207     22208     22209     22209     22207     22211     22210
     22211     22212     22212     22210     22214     22213     22214     22215
     22215     22213     22217     22216     22217     22218     22218     22216
     22220     22219     22220     22221     22221     22219     22223     22222
     22223     22224     22224     22222     22226     22225     22226     22227
     22227     22225     22229     22228     22229     22230     22230     22228
     22232     22231     22232     22233     22233     22231     22235     22234
     22235     22236     22236     22234     22238     22237     22238     22239
     22239     22237     22241     22240     22241     22242     22242     22240
     22244     22243     22244     22245     22245     22243     22247     22246
     22247     22248     22248     22246     22250     22249     22250     22251
     22251     22249     22253     22252     22253     22254     22254     22252
     22256     22255     22256     22257     22257     22255     22259     22258
     22259     22260     22260     22258     22262     22261     22262     22263
     22263     22261     22265     22264     22265     22266     22266     22264
     22268     22267     22268     22269     22269     22267     22271     22270
     22271     22272     22272     22270     22274     22273     22274     22275
     22275     22273     22277     22276     22277     22278     22278     22276
     22280     22279     22280     22281     22281     22279     22283     22282
     22283     22284     22284     22282     22286     22285     22286     22287
     22287     22285     22289     22288     22289     22290     22290     22288
     22292     22291     22292     22293     22293     22291     22295     22294
     22295     22296     22296     22294     22298     22297     22298     22299
     22299     22297     22301     22300     22301     22302     22302     22300
     22304     22303     22304     22305     22305     22303     22307     22306
     22307     22308     22308     22306     22310     22309     22310     22311
     22311     22309     22313     22312     22313     22314     22314     22312
     22316     22315     22316     22317     22317     22315     22319     22318
     22319     22320     22320     22318     22322     22321     22322     22323
     22323     22321     22325     22324     22325     22326     22326     22324
     22328     22327     22328     22329     22329     22327     22331     22330
     22331     22332     22332     22330     22334     22333     22334     22335
     22335     22333     22337     22336     22337     22338     22338     22336
     22340     22339     22340     22341     22341     22339     22343     22342
     22343     22344     22344     22342     22346     22345     22346     22347
     22347     22345     22349     22348     22349     22350     22350     22348
     22352     22351     22352     22353     22353     22351     22355     22354
     22355     22356     22356     22354     22358     22357     22358     22359
     22359     22357     22361     22360     22361     22362     22362     22360
     22364     22363     22364     22365     22365     22363     22367     22366
     22367     22368     22368     22366     22370     22369     22370     22371
     22371     22369     22373     22372     22373     22374     22374     22372
     22376     22375     22376     22377     22377     22375     22379     22378
     22379     22380     22380     22378     22382     22381     22382     22383
     22383     22381     22385     22384     22385     22386     22386     22384
     22388     22387     22388     22389     22389     22387     22391     22390
     22391     22392     22392     22390     22394     22393     22394     22395
     22395     22393     22397     22396     22397     22398     22398     22396
     22400     22399     22400     22401     22401     22399     22403     22402
     22403     22404     22404     22402     22406     22405     22406     22407
     22407     22405     22409     22408     22409     22410     22410     22408
     22412     22411     22412     22413     22413     22411     22415     22414
     22415     22416     22416     22414     22418     22417     22418     22419
     22419     22417     22421     22420     22421     22422     22422     22420
     22424     22423     22424     22425     22425     22423     22427     22426
     22427     22428     22428     22426     22430     22429     22430     22431
     22431     22429     22433     22432     22433     22434     22434     22432
     22436     22435     22436     22437     22437     22435     22439     22438
     22439     22440     22440     22438     22442     22441     22442     22443
     22443     22441     22445     22444     22445     22446     22446     22444
     22448     22447     22448     22449     22449     22447     22451     22450
     22451     22452     22452     22450     22454     22453     22454     22455
     22455     22453     22457     22456     22457     22458     22458     22456
     22460     22459     22460     22461     22461     22459     22463     22462
     22463     22464     22464     22462     22466     22465     22466     22467
     22467     22465     22469     22468     22469     22470     22470     22468
     22472     22471     22472     22473     22473     22471     22475     22474
     22475     22476     22476     22474     22478     22477     22478     22479
     22479     22477     22481     22480     22481     22482     22482     22480
     22484     22483     22484     22485     22485     22483     22487     22486
     22487     22488     22488     22486     22490     22489     22490     22491
     22491     22489     22493     22492     22493     22494     22494     22492
     22496     22495     22496     22497     22497     22495     22499     22498
     22499     22500     22500     22498     22502     22501     22502     22503
     22503     22501     22505     22504     22505     22506     22506     22504
     22508     22507     22508     22509     22509     22507     22511     22510
     22511     22512     22512     22510     22514     22513     22514     22515
     22515     22513     22517     22516     22517     22518     22518     22516
     22520     22519     22520     22521     22521     22519     22523     22522
     22523     22524     22524     22522     22526     22525     22526     22527
     22527     22525     22529     22528     22529     22530     22530     22528
     22532     22531     22532     22533     22533     22531     22535     22534
     22535     22536     22536     22534     22538     22537     22538     22539
     22539     22537     22541     22540     22541     22542     22542     22540
     22544     22543     22544     22545     22545     22543     22547     22546
     22547     22548     22548     22546     22550     22549     22550     22551
     22551     22549     22553     22552     22553     22554     22554     22552
     22556     22555     22556     22557     22557     22555     22559     22558
     22559     22560     22560     22558     22562     22561     22562     22563
     22563     22561     22565     22564     22565     22566     22566     22564
     22568     22567     22568     22569     22569     22567     22571     22570
     22571     22572     22572     22570     22574     22573     22574     22575
     22575     22573     22577     22576     22577     22578     22578     22576
     22580     22579     22580     22581     22581     22579     22583     22582
     22583     22584     22584     22582     22586     22585     22586     22587
     22587     22585     22589     22588     22589     22590     22590     22588
     22592     22591     22592     22593     22593     22591     22595     22594
     22595     22596     22596     22594     22598     22597     22598     22599
     22599     22597     22601     22600     22601     22602     22602     22600
     22604     22603     22604     22605     22605     22603     22607     22606
     22607     22608     22608     22606     22610     22609     22610     22611
     22611     22609     22613     22612     22613     22614     22614     22612
     22616     22615     22616     22617     22617     22615     22619     22618
     22619     22620     22620     22618     22622     22621     22622     22623
     22623     22621     22625     22624     22625     22626     22626     22624
     22628     22627     22628     22629     22629     22627     22631     22630
     22631     22632     22632     22630     22634     22633     22634     22635
     22635     22633     22637     22636     22637     22638     22638     22636
     22640     22639     22640     22641     22641     22639     22643     22642
     22643     22644     22644     22642     22646     22645     22646     22647
     22647     22645     22649     22648     22649     22650     22650     22648
     22652     22651     22652     22653     22653     22651     22655     22654
     22655     22656     22656     22654     22658     22657     22658     22659
     22659     22657     22661     22660     22661     22662     22662     22660
     22664     22663     22664     22665     22665     22663     22667     22666
     22667     22668     22668     22666     22670     22669     22670     22671
     22671     22669     22673     22672     22673     22674     22674     22672
     22676     22675     22676     22677     22677     22675     22679     22678
     22679     22680     22680     22678     22682     22681     22682     22683
     22683     22681     22685     22684     22685     22686     22686     22684
     22688     22687     22688     22689     22689     22687     22691     22690
     22691     22692     22692     22690     22694     22693     22694     22695
     22695     22693     22697     22696     22697     22698     22698     22696
     22700     22699     22700     22701     22701     22699     22703     22702
     22703     22704     22704     22702     22706     22705     22706     22707
     22707     22705     22709     22708     22709     22710     22710     22708
     22712     22711     22712     22713     22713     22711     22715     22714
     22715     22716     22716     22714     22718     22717     22718     22719
     22719     22717     22721     22720     22721     22722     22722     22720
     22724     22723     22724     22725     22725     22723     22727     22726
     22727     22728     22728     22726     22730     22729     22730     22731
     22731     22729     22733     22732     22733     22734     22734     22732
     22736     22735     22736     22737     22737     22735     22739     22738
     22739     22740     22740     22738     22742     22741     22742     22743
     22743     22741     22745     22744     22745     22746     22746     22744
     22748     22747     22748     22749     22749     22747     22751     22750
     22751     22752     22752     22750     22754     22753     22754     22755
     22755     22753     22757     22756     22757     22758     22758     22756
     22760     22759     22760     22761     22761     22759     22763     22762
     22763     22764     22764     22762     22766     22765     22766     22767
     22767     22765     22769     22768     22769     22770     22770     22768
     22772     22771     22772     22773     22773     22771     22775     22774
     22775     22776     22776     22774     22778     22777     22778     22779
     22779     22777     22781     22780     22781     22782     22782     22780
     22784     22783     22784     22785     22785     22783     22787     22786
     22787     22788     22788     22786     22790     22789     22790     22791
     22791     22789     22793     22792     22793     22794     22794     22792
     22796     22795     22796     22797     22797     22795     22799     22798
     22799     22800     22800     22798     22802     22801     22802     22803
     22803     22801     22805     22804     22805     22806     22806     22804
     22808     22807     22808     22809     22809     22807     22811     22810
     22811     22812     22812     22810     22814     22813     22814     22815
     22815     22813     22817     22816     22817     22818     22818     22816
     22820     22819     22820     22821     22821     22819     22823     22822
     22823     22824     22824     22822     22826     22825     22826     22827
     22827     22825     22829     22828     22829     22830     22830     22828
     22832     22831     22832     22833     22833     22831     22835     22834
     22835     22836     22836     22834     22838     22837     22838     22839
     22839     22837     22841     22840     22841     22842     22842     22840
     22844     22843     22844     22845     22845     22843     22847     22846
     22847     22848     22848     22846     22850     22849     22850     22851
     22851     22849     22853     22852     22853     22854     22854     22852
     22856     22855     22856     22857     22857     22855     22859     22858
     22859     22860     22860     22858     22862     22861     22862     22863
     22863     22861     22865     22864     22865     22866     22866     22864
     22868     22867     22868     22869     22869     22867     22871     22870
     22871     22872     22872     22870     22874     22873     22874     22875
     22875     22873     22877     22876     22877     22878     22878     22876
     22880     22879     22880     22881     22881     22879     22883     22882
     22883     22884     22884     22882     22886     22885     22886     22887
     22887     22885     22889     22888     22889     22890     22890     22888
     22892     22891     22892     22893     22893     22891     22895     22894
     22895     22896     22896     22894     22898     22897     22898     22899
     22899     22897     22901     22900     22901     22902     22902     22900
     22904     22903     22904     22905     22905     22903     22907     22906
     22907     22908     22908     22906     22910     22909     22910     22911
     22911     22909     22913     22912     22913     22914     22914     22912
     22916     22915     22916     22917     22917     22915     22919     22918
     22919     22920     22920     22918     22922     22921     22922     22923
     22923     22921     22925     22924     22925     22926     22926     22924
     22928     22927     22928     22929     22929     22927     22931     22930
     22931     22932     22932     22930     22934     22933     22934     22935
     22935     22933     22937     22936     22937     22938     22938     22936
     22940     22939     22940     22941     22941     22939     22943     22942
     22943     22944     22944     22942     22946     22945     22946     22947
     22947     22945     22949     22948     22949     22950     22950     22948
     22952     22951     22952     22953     22953     22951     22955     22954
     22955     22956     22956     22954     22958     22957     22958     22959
     22959     22957     22961     22960     22961     22962     22962     22960
     22964     22963     22964     22965     22965     22963     22967     22966
     22967     22968     22968     22966     22970     22969     22970     22971
     22971     22969     22973     22972     22973     22974     22974     22972
     22976     22975     22976     22977     22977     22975     22979     22978
     22979     22980     22980     22978     22982     22981     22982     22983
     22983     22981     22985     22984     22985     22986     22986     22984
     22988     22987     22988     22989     22989     22987     22991     22990
     22991     22992     22992     22990     22994     22993     22994     22995
     22995     22993     22997     22996     22997     22998     22998     22996
     23000     22999     23000     23001     23001     22999     23003     23002
     23003     23004     23004     23002     23006     23005     23006     23007
     23007     23005     23009     23008     23009     23010     23010     23008
     23012     23011     23012     23013     23013     23011     23015     23014
     23015     23016     23016     23014     23018     23017     23018     23019
     23019     23017     23021     23020     23021     23022     23022     23020
     23024     23023     23024     23025     23025     23023     23027     23026
     23027     23028     23028     23026     23030     23029     23030     23031
     23031     23029     23033     23032     23033     23034     23034     23032
     23036     23035     23036     23037     23037     23035     23039     23038
     23039     23040     23040     23038     23042     23041     23042     23043
     23043     23041     23045     23044     23045     23046     23046     23044
     23048     23047     23048     23049     23049     23047     23051     23050
     23051     23052     23052     23050     23054     23053     23054     23055
     23055     23053     23057     23056     23057     23058     23058     23056
     23060     23059     23060     23061     23061     23059     23063     23062
     23063     23064     23064     23062     23066     23065     23066     23067
     23067     23065     23069     23068     23069     23070     23070     23068
     23072     23071     23072     23073     23073     23071     23075     23074
     23075     23076     23076     23074     23078     23077     23078     23079
     23079     23077     23081     23080     23081     23082     23082     23080
     23084     23083     23084     23085     23085     23083     23087     23086
     23087     23088     23088     23086     23090     23089     23090     23091
     23091     23089     23093     23092     23093     23094     23094     23092
     23096     23095     23096     23097     23097     23095     23099     23098
     23099     23100     23100     23098     23102     23101     23102     23103
     23103     23101     23105     23104     23105     23106     23106     23104
     23108     23107     23108     23109     23109     23107     23111     23110
     23111     23112     23112     23110     23114     23113     23114     23115
     23115     23113     23117     23116     23117     23118     23118     23116
     23120     23119     23120     23121     23121     23119     23123     23122
     23123     23124     23124     23122     23126     23125     23126     23127
     23127     23125     23129     23128     23129     23130     23130     23128
     23132     23131     23132     23133     23133     23131     23135     23134
     23135     23136     23136     23134     23138     23137     23138     23139
     23139     23137     23141     23140     23141     23142     23142     23140
     23144     23143     23144     23145     23145     23143     23147     23146
     23147     23148     23148     23146     23150     23149     23150     23151
     23151     23149     23153     23152     23153     23154     23154     23152
     23156     23155     23156     23157     23157     23155     23159     23158
     23159     23160     23160     23158     23162     23161     23162     23163
     23163     23161     23165     23164     23165     23166     23166     23164
     23168     23167     23168     23169     23169     23167     23171     23170
     23171     23172     23172     23170     23174     23173     23174     23175
     23175     23173     23177     23176     23177     23178     23178     23176
     23180     23179     23180     23181     23181     23179     23183     23182
     23183     23184     23184     23182     23186     23185     23186     23187
     23187     23185     23189     23188     23189     23190     23190     23188
     23192     23191     23192     23193     23193     23191     23195     23194
     23195     23196     23196     23194     23198     23197     23198     23199
     23199     23197     23201     23200     23201     23202     23202     23200
     23204     23203     23204     23205     23205     23203     23207     23206
     23207     23208     23208     23206     23210     23209     23210     23211
     23211     23209     23213     23212     23213     23214     23214     23212
     23216     23215     23216     23217     23217     23215     23219     23218
     23219     23220     23220     23218     23222     23221     23222     23223
     23223     23221     23225     23224     23225     23226     23226     23224
     23228     23227     23228     23229     23229     23227     23231     23230
     23231     23232     23232     23230     23234     23233     23234     23235
     23235     23233     23237     23236     23237     23238     23238     23236
     23240     23239     23240     23241     23241     23239     23243     23242
     23243     23244     23244     23242     23246     23245     23246     23247
     23247     23245     23249     23248     23249     23250     23250     23248
     23252     23251     23252     23253     23253     23251     23255     23254
     23255     23256     23256     23254     23258     23257     23258     23259
     23259     23257     23261     23260     23261     23262     23262     23260
     23264     23263     23264     23265     23265     23263     23267     23266
     23267     23268     23268     23266     23270     23269     23270     23271
     23271     23269     23273     23272     23273     23274     23274     23272
     23276     23275     23276     23277     23277     23275     23279     23278
     23279     23280     23280     23278     23282     23281     23282     23283
     23283     23281     23285     23284     23285     23286     23286     23284
     23288     23287     23288     23289     23289     23287     23291     23290
     23291     23292     23292     23290     23294     23293     23294     23295
     23295     23293     23297     23296     23297     23298     23298     23296
     23300     23299     23300     23301     23301     23299     23303     23302
     23303     23304     23304     23302     23306     23305     23306     23307
     23307     23305     23309     23308     23309     23310     23310     23308
     23312     23311     23312     23313     23313     23311     23315     23314
     23315     23316     23316     23314     23318     23317     23318     23319
     23319     23317     23321     23320     23321     23322     23322     23320
     23324     23323     23324     23325     23325     23323     23327     23326
     23327     23328     23328     23326     23330     23329     23330     23331
     23331     23329     23333     23332     23333     23334     23334     23332
     23336     23335     23336     23337     23337     23335     23339     23338
     23339     23340     23340     23338     23342     23341     23342     23343
     23343     23341     23345     23344     23345     23346     23346     23344
     23348     23347     23348     23349     23349     23347     23351     23350
     23351     23352     23352     23350     23354     23353     23354     23355
     23355     23353     23357     23356     23357     23358     23358     23356
     23360     23359     23360     23361     23361     23359     23363     23362
     23363     23364     23364     23362     23366     23365     23366     23367
     23367     23365     23369     23368     23369     23370     23370     23368
     23372     23371     23372     23373     23373     23371     23375     23374
     23375     23376     23376     23374     23378     23377     23378     23379
     23379     23377     23381     23380     23381     23382     23382     23380
     23384     23383     23384     23385     23385     23383     23387     23386
     23387     23388     23388     23386     23390     23389     23390     23391
     23391     23389     23393     23392     23393     23394     23394     23392
     23396     23395     23396     23397     23397     23395     23399     23398
     23399     23400     23400     23398     23402     23401     23402     23403
     23403     23401     23405     23404     23405     23406     23406     23404
     23408     23407     23408     23409     23409     23407     23411     23410
     23411     23412     23412     23410     23414     23413     23414     23415
     23415     23413     23417     23416     23417     23418     23418     23416
     23420     23419     23420     23421     23421     23419     23423     23422
     23423     23424     23424     23422     23426     23425     23426     23427
     23427     23425     23429     23428     23429     23430     23430     23428
     23432     23431     23432     23433     23433     23431     23435     23434
     23435     23436     23436     23434     23438     23437     23438     23439
     23439     23437     23441     23440     23441     23442     23442     23440
     23444     23443     23444     23445     23445     23443     23447     23446
     23447     23448     23448     23446     23450     23449     23450     23451
     23451     23449     23453     23452     23453     23454     23454     23452
     23456     23455     23456     23457     23457     23455     23459     23458
     23459     23460     23460     23458     23462     23461     23462     23463
     23463     23461     23465     23464     23465     23466     23466     23464
     23468     23467     23468     23469     23469     23467     23471     23470
     23471     23472     23472     23470     23474     23473     23474     23475
     23475     23473     23477     23476     23477     23478     23478     23476
     23480     23479     23480     23481     23481     23479     23483     23482
     23483     23484     23484     23482     23486     23485     23486     23487
     23487     23485     23489     23488     23489     23490     23490     23488
     23492     23491     23492     23493     23493     23491     23495     23494
     23495     23496     23496     23494     23498     23497     23498     23499
     23499     23497     23501     23500     23501     23502     23502     23500
     23504     23503     23504     23505     23505     23503     23507     23506
     23507     23508     23508     23506     23510     23509     23510     23511
     23511     23509     23513     23512     23513     23514     23514     23512
     23516     23515     23516     23517     23517     23515     23519     23518
     23519     23520     23520     23518     23522     23521     23522     23523
     23523     23521     23525     23524     23525     23526     23526     23524
     23528     23527     23528     23529     23529     23527     23531     23530
     23531     23532     23532     23530     23534     23533     23534     23535
     23535     23533     23537     23536     23537     23538     23538     23536
     23540     23539     23540     23541     23541     23539     23543     23542
     23543     23544     23544     23542     23546     23545     23546     23547
     23547     23545     23549     23548     23549     23550     23550     23548
     23552     23551     23552     23553     23553     23551     23555     23554
     23555     23556     23556     23554     23558     23557     23558     23559
     23559     23557     23561     23560     23561     23562     23562     23560
     23564     23563     23564     23565     23565     23563     23567     23566
     23567     23568     23568     23566     23570     23569     23570     23571
     23571     23569     23573     23572     23573     23574     23574     23572
     23576     23575     23576     23577     23577     23575     23579     23578
     23579     23580     23580     23578     23582     23581     23582     23583
     23583     23581     23585     23584     23585     23586     23586     23584
     23588     23587     23588     23589     23589     23587     23591     23590
     23591     23592     23592     23590     23594     23593     23594     23595
     23595     23593     23597     23596     23597     23598     23598     23596
     23600     23599     23600     23601     23601     23599     23603     23602
     23603     23604     23604     23602     23606     23605     23606     23607
     23607     23605     23609     23608     23609     23610     23610     23608
     23612     23611     23612     23613     23613     23611     23615     23614
     23615     23616     23616     23614     23618     23617     23618     23619
     23619     23617     23621     23620     23621     23622     23622     23620
     23624     23623     23624     23625     23625     23623     23627     23626
     23627     23628     23628     23626     23630     23629     23630     23631
     23631     23629     23633     23632     23633     23634     23634     23632
     23636     23635     23636     23637     23637     23635     23639     23638
     23639     23640     23640     23638     23642     23641     23642     23643
     23643     23641     23645     23644     23645     23646     23646     23644
     23648     23647     23648     23649     23649     23647     23651     23650
     23651     23652     23652     23650     23654     23653     23654     23655
     23655     23653     23657     23656     23657     23658     23658     23656
     23660     23659     23660     23661     23661     23659     23663     23662
     23663     23664     23664     23662     23666     23665     23666     23667
     23667     23665     23669     23668     23669     23670     23670     23668
     23672     23671     23672     23673     23673     23671     23675     23674
     23675     23676     23676     23674     23678     23677     23678     23679
     23679     23677     23681     23680     23681     23682     23682     23680
     23684     23683     23684     23685     23685     23683     23687     23686
     23687     23688     23688     23686     23690     23689     23690     23691
     23691     23689     23693     23692     23693     23694     23694     23692
     23696     23695     23696     23697     23697     23695     23699     23698
     23699     23700     23700     23698     23702     23701     23702     23703
     23703     23701     23705     23704     23705     23706     23706     23704
     23708     23707     23708     23709     23709     23707     23711     23710
     23711     23712     23712     23710     23714     23713     23714     23715
     23715     23713     23717     23716     23717     23718     23718     23716
     23720     23719     23720     23721     23721     23719     23723     23722
     23723     23724     23724     23722     23726     23725     23726     23727
     23727     23725     23729     23728     23729     23730     23730     23728
     23732     23731     23732     23733     23733     23731     23735     23734
     23735     23736     23736     23734     23738     23737     23738     23739
     23739     23737     23741     23740     23741     23742     23742     23740
     23744     23743     23744     23745     23745     23743     23747     23746
     23747     23748     23748     23746     23750     23749     23750     23751
     23751     23749     23753     23752     23753     23754     23754     23752
     23756     23755     23756     23757     23757     23755     23759     23758
     23759     23760     23760     23758     23762     23761     23762     23763
     23763     23761     23765     23764     23765     23766     23766     23764
     23768     23767     23768     23769     23769     23767     23771     23770
     23771     23772     23772     23770     23774     23773     23774     23775
     23775     23773     23777     23776     23777     23778     23778     23776
     23780     23779     23780     23781     23781     23779     23783     23782
     23783     23784     23784     23782     23786     23785     23786     23787
     23787     23785     23789     23788     23789     23790     23790     23788
     23792     23791     23792     23793     23793     23791     23795     23794
     23795     23796     23796     23794     23798     23797     23798     23799
     23799     23797     23801     23800     23801     23802     23802     23800
     23804     23803     23804     23805     23805     23803     23807     23806
     23807     23808     23808     23806     23810     23809     23810     23811
     23811     23809     23813     23812     23813     23814     23814     23812
     23816     23815     23816     23817     23817     23815     23819     23818
     23819     23820     23820     23818     23822     23821     23822     23823
     23823     23821     23825     23824     23825     23826     23826     23824
     23828     23827     23828     23829     23829     23827     23831     23830
     23831     23832     23832     23830     23834     23833     23834     23835
     23835     23833     23837     23836     23837     23838     23838     23836
     23840     23839     23840     23841     23841     23839     23843     23842
     23843     23844     23844     23842     23846     23845     23846     23847
     23847     23845     23849     23848     23849     23850     23850     23848
     23852     23851     23852     23853     23853     23851     23855     23854
     23855     23856     23856     23854     23858     23857     23858     23859
     23859     23857     23861     23860     23861     23862     23862     23860
     23864     23863     23864     23865     23865     23863     23867     23866
     23867     23868     23868     23866     23870     23869     23870     23871
     23871     23869     23873     23872     23873     23874     23874     23872
     23876     23875     23876     23877     23877     23875     23879     23878
     23879     23880     23880     23878     23882     23881     23882     23883
     23883     23881     23885     23884     23885     23886     23886     23884
     23888     23887     23888     23889     23889     23887     23891     23890
     23891     23892     23892     23890     23894     23893     23894     23895
     23895     23893     23897     23896     23897     23898     23898     23896
     23900     23899     23900     23901     23901     23899     23903     23902
     23903     23904     23904     23902     23906     23905     23906     23907
     23907     23905     23909     23908     23909     23910     23910     23908
     23912     23911     23912     23913     23913     23911     23915     23914
     23915     23916     23916     23914     23918     23917     23918     23919
     23919     23917     23921     23920     23921     23922     23922     23920
     23924     23923     23924     23925     23925     23923     23927     23926
     23927     23928     23928     23926     23930     23929     23930     23931
     23931     23929     23933     23932     23933     23934     23934     23932
     23936     23935     23936     23937     23937     23935     23939     23938
     23939     23940     23940     23938     23942     23941     23942     23943
     23943     23941     23945     23944     23945     23946     23946     23944
     23948     23947     23948     23949     23949     23947     23951     23950
     23951     23952     23952     23950     23954     23953     23954     23955
     23955     23953     23957     23956     23957     23958     23958     23956
     23960     23959     23960     23961     23961     23959     23963     23962
     23963     23964     23964     23962     23966     23965     23966     23967
     23967     23965     23969     23968     23969     23970     23970     23968
     23972     23971     23972     23973     23973     23971     23975     23974
     23975     23976     23976     23974     23978     23977     23978     23979
     23979     23977     23981     23980     23981     23982     23982     23980
     23984     23983     23984     23985     23985     23983     23987     23986
     23987     23988     23988     23986     23990     23989     23990     23991
     23991     23989     23993     23992     23993     23994     23994     23992
     23996     23995     23996     23997     23997     23995     23999     23998
     23999     24000     24000     23998     24002     24001     24002     24003
     24003     24001     24005     24004     24005     24006     24006     24004
     24008     24007     24008     24009     24009     24007     24011     24010
     24011     24012     24012     24010     24014     24013     24014     24015
     24015     24013     24017     24016     24017     24018     24018     24016
     24020     24019     24020     24021     24021     24019     24023     24022
     24023     24024     24024     24022     24026     24025     24026     24027
     24027     24025     24029     24028     24029     24030     24030     24028
     24032     24031     24032     24033     24033     24031     24035     24034
     24035     24036     24036     24034     24038     24037     24038     24039
     24039     24037     24041     24040     24041     24042     24042     24040
     24044     24043     24044     24045     24045     24043     24047     24046
     24047     24048     24048     24046     24050     24049     24050     24051
     24051     24049     24053     24052     24053     24054     24054     24052
     24056     24055     24056     24057     24057     24055     24059     24058
     24059     24060     24060     24058     24062     24061     24062     24063
     24063     24061     24065     24064     24065     24066     24066     24064
     24068     24067     24068     24069     24069     24067     24071     24070
     24071     24072     24072     24070     24074     24073     24074     24075
     24075     24073     24077     24076     24077     24078     24078     24076
     24080     24079     24080     24081     24081     24079     24083     24082
     24083     24084     24084     24082     24086     24085     24086     24087
     24087     24085     24089     24088     24089     24090     24090     24088
     24092     24091     24092     24093     24093     24091     24095     24094
     24095     24096     24096     24094     24098     24097     24098     24099
     24099     24097     24101     24100     24101     24102     24102     24100
     24104     24103     24104     24105     24105     24103     24107     24106
     24107     24108     24108     24106     24110     24109     24110     24111
     24111     24109     24113     24112     24113     24114     24114     24112
     24116     24115     24116     24117     24117     24115     24119     24118
     24119     24120     24120     24118     24122     24121     24122     24123
     24123     24121     24125     24124     24125     24126     24126     24124
     24128     24127     24128     24129     24129     24127     24131     24130
     24131     24132     24132     24130     24134     24133     24134     24135
     24135     24133     24137     24136     24137     24138     24138     24136
     24140     24139     24140     24141     24141     24139     24143     24142
     24143     24144     24144     24142     24146     24145     24146     24147
     24147     24145     24149     24148     24149     24150     24150     24148
     24152     24151     24152     24153     24153     24151     24155     24154
     24155     24156     24156     24154     24158     24157     24158     24159
     24159     24157     24161     24160     24161     24162     24162     24160
     24164     24163     24164     24165     24165     24163     24167     24166
     24167     24168     24168     24166     24170     24169     24170     24171
     24171     24169     24173     24172     24173     24174     24174     24172
     24176     24175     24176     24177     24177     24175     24179     24178
     24179     24180     24180     24178     24182     24181     24182     24183
     24183     24181     24185     24184     24185     24186     24186     24184
     24188     24187     24188     24189     24189     24187     24191     24190
     24191     24192     24192     24190     24194     24193     24194     24195
     24195     24193     24197     24196     24197     24198     24198     24196
     24200     24199     24200     24201     24201     24199     24203     24202
     24203     24204     24204     24202     24206     24205     24206     24207
     24207     24205     24209     24208     24209     24210     24210     24208
     24212     24211     24212     24213     24213     24211     24215     24214
     24215     24216     24216     24214     24218     24217     24218     24219
     24219     24217     24221     24220     24221     24222     24222     24220
     24224     24223     24224     24225     24225     24223     24227     24226
     24227     24228     24228     24226     24230     24229     24230     24231
     24231     24229     24233     24232     24233     24234     24234     24232
     24236     24235     24236     24237     24237     24235     24239     24238
     24239     24240     24240     24238     24242     24241     24242     24243
     24243     24241     24245     24244     24245     24246     24246     24244
     24248     24247     24248     24249     24249     24247     24251     24250
     24251     24252     24252     24250     24254     24253     24254     24255
     24255     24253     24257     24256     24257     24258     24258     24256
     24260     24259     24260     24261     24261     24259     24263     24262
     24263     24264     24264     24262     24266     24265     24266     24267
     24267     24265     24269     24268     24269     24270     24270     24268
     24272     24271     24272     24273     24273     24271     24275     24274
     24275     24276     24276     24274     24278     24277     24278     24279
     24279     24277     24281     24280     24281     24282     24282     24280
     24284     24283     24284     24285     24285     24283     24287     24286
     24287     24288     24288     24286     24290     24289     24290     24291
     24291     24289     24293     24292     24293     24294     24294     24292
     24296     24295     24296     24297     24297     24295     24299     24298
     24299     24300     24300     24298     24302     24301     24302     24303
     24303     24301     24305     24304     24305     24306     24306     24304
     24308     24307     24308     24309     24309     24307     24311     24310
     24311     24312     24312     24310     24314     24313     24314     24315
     24315     24313     24317     24316     24317     24318     24318     24316
     24320     24319     24320     24321     24321     24319     24323     24322
     24323     24324     24324     24322     24326     24325     24326     24327
     24327     24325     24329     24328     24329     24330     24330     24328
     24332     24331     24332     24333     24333     24331     24335     24334
     24335     24336     24336     24334     24338     24337     24338     24339
     24339     24337     24341     24340     24341     24342     24342     24340
     24344     24343     24344     24345     24345     24343     24347     24346
     24347     24348     24348     24346     24350     24349     24350     24351
     24351     24349     24353     24352     24353     24354     24354     24352
     24356     24355     24356     24357     24357     24355     24359     24358
     24359     24360     24360     24358     24362     24361     24362     24363
     24363     24361     24365     24364     24365     24366     24366     24364
     24368     24367     24368     24369     24369     24367     24371     24370
     24371     24372     24372     24370     24374     24373     24374     24375
     24375     24373     24377     24376     24377     24378     24378     24376
     24380     24379     24380     24381     24381     24379     24383     24382
     24383     24384     24384     24382     24386     24385     24386     24387
     24387     24385     24389     24388     24389     24390     24390     24388
     24392     24391     24392     24393     24393     24391     24395     24394
     24395     24396     24396     24394     24398     24397     24398     24399
     24399     24397     24401     24400     24401     24402     24402     24400
     24404     24403     24404     24405     24405     24403     24407     24406
     24407     24408     24408     24406     24410     24409     24410     24411
     24411     24409     24413     24412     24413     24414     24414     24412
     24416     24415     24416     24417     24417     24415     24419     24418
     24419     24420     24420     24418     24422     24421     24422     24423
     24423     24421     24425     24424     24425     24426     24426     24424
     24428     24427     24428     24429     24429     24427     24431     24430
     24431     24432     24432     24430     24434     24433     24434     24435
     24435     24433     24437     24436     24437     24438     24438     24436
     24440     24439     24440     24441     24441     24439     24443     24442
     24443     24444     24444     24442     24446     24445     24446     24447
     24447     24445     24449     24448     24449     24450     24450     24448
     24452     24451     24452     24453     24453     24451     24455     24454
     24455     24456     24456     24454     24458     24457     24458     24459
     24459     24457     24461     24460     24461     24462     24462     24460
     24464     24463     24464     24465     24465     24463     24467     24466
     24467     24468     24468     24466     24470     24469     24470     24471
     24471     24469     24473     24472     24473     24474     24474     24472
     24476     24475     24476     24477     24477     24475     24479     24478
     24479     24480     24480     24478     24482     24481     24482     24483
     24483     24481     24485     24484     24485     24486     24486     24484
     24488     24487     24488     24489     24489     24487     24491     24490
     24491     24492     24492     24490     24494     24493     24494     24495
     24495     24493     24497     24496     24497     24498     24498     24496
     24500     24499     24500     24501     24501     24499     24503     24502
     24503     24504     24504     24502     24506     24505     24506     24507
     24507     24505     24509     24508     24509     24510     24510     24508
     24512     24511     24512     24513     24513     24511     24515     24514
     24515     24516     24516     24514     24518     24517     24518     24519
     24519     24517     24521     24520     24521     24522     24522     24520
     24524     24523     24524     24525     24525     24523     24527     24526
     24527     24528     24528     24526     24530     24529     24530     24531
     24531     24529     24533     24532     24533     24534     24534     24532
     24536     24535     24536     24537     24537     24535     24539     24538
     24539     24540     24540     24538     24542     24541     24542     24543
     24543     24541     24545     24544     24545     24546     24546     24544
     24548     24547     24548     24549     24549     24547     24551     24550
     24551     24552     24552     24550     24554     24553     24554     24555
     24555     24553     24557     24556     24557     24558     24558     24556
     24560     24559     24560     24561     24561     24559     24563     24562
     24563     24564     24564     24562     24566     24565     24566     24567
     24567     24565     24569     24568     24569     24570     24570     24568
     24572     24571     24572     24573     24573     24571     24575     24574
     24575     24576     24576     24574     24578     24577     24578     24579
     24579     24577     24581     24580     24581     24582     24582     24580
     24584     24583     24584     24585     24585     24583     24587     24586
     24587     24588     24588     24586     24590     24589     24590     24591
     24591     24589     24593     24592     24593     24594     24594     24592
     24596     24595     24596     24597     24597     24595     24599     24598
     24599     24600     24600     24598     24602     24601     24602     24603
     24603     24601     24605     24604     24605     24606     24606     24604
     24608     24607     24608     24609     24609     24607     24611     24610
     24611     24612     24612     24610     24614     24613     24614     24615
     24615     24613     24617     24616     24617     24618     24618     24616
     24620     24619     24620     24621     24621     24619     24623     24622
     24623     24624     24624     24622     24626     24625     24626     24627
     24627     24625     24629     24628     24629     24630     24630     24628
     24632     24631     24632     24633     24633     24631     24635     24634
     24635     24636     24636     24634     24638     24637     24638     24639
     24639     24637     24641     24640     24641     24642     24642     24640
     24644     24643     24644     24645     24645     24643     24647     24646
     24647     24648     24648     24646     24650     24649     24650     24651
     24651     24649     24653     24652     24653     24654     24654     24652
     24656     24655     24656     24657     24657     24655     24659     24658
     24659     24660     24660     24658     24662     24661     24662     24663
     24663     24661     24665     24664     24665     24666     24666     24664
     24668     24667     24668     24669     24669     24667     24671     24670
     24671     24672     24672     24670     24674     24673     24674     24675
     24675     24673     24677     24676     24677     24678     24678     24676
     24680     24679     24680     24681     24681     24679     24683     24682
     24683     24684     24684     24682     24686     24685     24686     24687
     24687     24685     24689     24688     24689     24690     24690     24688
     24692     24691     24692     24693     24693     24691     24695     24694
     24695     24696     24696     24694     24698     24697     24698     24699
     24699     24697     24701     24700     24701     24702     24702     24700
     24704     24703     24704     24705     24705     24703     24707     24706
     24707     24708     24708     24706     24710     24709     24710     24711
     24711     24709     24713     24712     24713     24714     24714     24712
     24716     24715     24716     24717     24717     24715     24719     24718
     24719     24720     24720     24718     24722     24721     24722     24723
     24723     24721     24725     24724     24725     24726     24726     24724
     24728     24727     24728     24729     24729     24727     24731     24730
     24731     24732     24732     24730     24734     24733     24734     24735
     24735     24733     24737     24736     24737     24738     24738     24736
     24740     24739     24740     24741     24741     24739     24743     24742
     24743     24744     24744     24742     24746     24745     24746     24747
     24747     24745     24749     24748     24749     24750     24750     24748
     24752     24751     24752     24753     24753     24751     24755     24754
     24755     24756     24756     24754     24758     24757     24758     24759
     24759     24757     24761     24760     24761     24762     24762     24760
     24764     24763     24764     24765     24765     24763     24767     24766
     24767     24768     24768     24766     24770     24769     24770     24771
     24771     24769     24773     24772     24773     24774     24774     24772
     24776     24775     24776     24777     24777     24775     24779     24778
     24779     24780     24780     24778     24782     24781     24782     24783
     24783     24781     24785     24784     24785     24786     24786     24784
     24788     24787     24788     24789     24789     24787     24791     24790
     24791     24792     24792     24790     24794     24793     24794     24795
     24795     24793     24797     24796     24797     24798     24798     24796
     24800     24799     24800     24801     24801     24799     24803     24802
     24803     24804     24804     24802     24806     24805     24806     24807
     24807     24805     24809     24808     24809     24810     24810     24808
     24812     24811     24812     24813     24813     24811     24815     24814
     24815     24816     24816     24814     24818     24817     24818     24819
     24819     24817     24821     24820     24821     24822     24822     24820
     24824     24823     24824     24825     24825     24823     24827     24826
     24827     24828     24828     24826     24830     24829     24830     24831
     24831     24829     24833     24832     24833     24834     24834     24832
     24836     24835     24836     24837     24837     24835     24839     24838
     24839     24840     24840     24838     24842     24841     24842     24843
     24843     24841     24845     24844     24845     24846     24846     24844
     24848     24847     24848     24849     24849     24847     24851     24850
     24851     24852     24852     24850     24854     24853     24854     24855
     24855     24853     24857     24856     24857     24858     24858     24856
     24860     24859     24860     24861     24861     24859     24863     24862
     24863     24864     24864     24862     24866     24865     24866     24867
     24867     24865     24869     24868     24869     24870     24870     24868
     24872     24871     24872     24873     24873     24871     24875     24874
     24875     24876     24876     24874     24878     24877     24878     24879
     24879     24877     24881     24880     24881     24882     24882     24880
     24884     24883     24884     24885     24885     24883     24887     24886
     24887     24888     24888     24886     24890     24889     24890     24891
     24891     24889     24893     24892     24893     24894     24894     24892
     24896     24895     24896     24897     24897     24895     24899     24898
     24899     24900     24900     24898     24902     24901     24902     24903
     24903     24901     24905     24904     24905     24906     24906     24904
     24908     24907     24908     24909     24909     24907     24911     24910
     24911     24912     24912     24910     24914     24913     24914     24915
     24915     24913     24917     24916     24917     24918     24918     24916
     24920     24919     24920     24921     24921     24919     24923     24922
     24923     24924     24924     24922     24926     24925     24926     24927
     24927     24925     24929     24928     24929     24930     24930     24928
     24932     24931     24932     24933     24933     24931     24935     24934
     24935     24936     24936     24934     24938     24937     24938     24939
     24939     24937     24941     24940     24941     24942     24942     24940
     24944     24943     24944     24945     24945     24943     24947     24946
     24947     24948     24948     24946     24950     24949     24950     24951
     24951     24949     24953     24952     24953     24954     24954     24952
     24956     24955     24956     24957     24957     24955     24959     24958
     24959     24960     24960     24958     24962     24961     24962     24963
     24963     24961     24965     24964     24965     24966     24966     24964
     24968     24967     24968     24969     24969     24967     24971     24970
     24971     24972     24972     24970     24974     24973     24974     24975
     24975     24973     24977     24976     24977     24978     24978     24976
     24980     24979     24980     24981     24981     24979     24983     24982
     24983     24984     24984     24982     24986     24985     24986     24987
     24987     24985     24989     24988     24989     24990     24990     24988
     24992     24991     24992     24993     24993     24991     24995     24994
     24995     24996     24996     24994     24998     24997     24998     24999
     24999     24997     25001     25000     25001     25002     25002     25000
     25004     25003     25004     25005     25005     25003     25007     25006
     25007     25008     25008     25006     25010     25009     25010     25011
     25011     25009     25013     25012     25013     25014     25014     25012
     25016     25015     25016     25017     25017     25015     25019     25018
     25019     25020     25020     25018     25022     25021     25022     25023
     25023     25021     25025     25024     25025     25026     25026     25024
     25028     25027     25028     25029     25029     25027     25031     25030
     25031     25032     25032     25030     25034     25033     25034     25035
     25035     25033     25037     25036     25037     25038     25038     25036
     25040     25039     25040     25041     25041     25039     25043     25042
     25043     25044     25044     25042     25046     25045     25046     25047
     25047     25045     25049     25048     25049     25050     25050     25048
     25052     25051     25052     25053     25053     25051     25055     25054
     25055     25056     25056     25054     25058     25057     25058     25059
     25059     25057     25061     25060     25061     25062     25062     25060
     25064     25063     25064     25065     25065     25063     25067     25066
     25067     25068     25068     25066     25070     25069     25070     25071
     25071     25069     25073     25072     25073     25074     25074     25072
     25076     25075     25076     25077     25077     25075     25079     25078
     25079     25080     25080     25078     25082     25081     25082     25083
     25083     25081     25085     25084     25085     25086     25086     25084
     25088     25087     25088     25089     25089     25087     25091     25090
     25091     25092     25092     25090     25094     25093     25094     25095
     25095     25093     25097     25096     25097     25098     25098     25096
     25100     25099     25100     25101     25101     25099     25103     25102
     25103     25104     25104     25102     25106     25105     25106     25107
     25107     25105     25109     25108     25109     25110     25110     25108
     25112     25111     25112     25113     25113     25111     25115     25114
     25115     25116     25116     25114     25118     25117     25118     25119
     25119     25117     25121     25120     25121     25122     25122     25120
     25124     25123     25124     25125     25125     25123     25127     25126
     25127     25128     25128     25126     25130     25129     25130     25131
     25131     25129     25133     25132     25133     25134     25134     25132
     25136     25135     25136     25137     25137     25135     25139     25138
     25139     25140     25140     25138     25142     25141     25142     25143
     25143     25141     25145     25144     25145     25146     25146     25144
     25148     25147     25148     25149     25149     25147     25151     25150
     25151     25152     25152     25150     25154     25153     25154     25155
     25155     25153     25157     25156     25157     25158     25158     25156
     25160     25159     25160     25161     25161     25159     25163     25162
     25163     25164     25164     25162     25166     25165     25166     25167
     25167     25165     25169     25168     25169     25170     25170     25168
     25172     25171     25172     25173     25173     25171     25175     25174
     25175     25176     25176     25174     25178     25177     25178     25179
     25179     25177     25181     25180     25181     25182     25182     25180
     25184     25183     25184     25185     25185     25183     25187     25186
     25187     25188     25188     25186     25190     25189     25190     25191
     25191     25189     25193     25192     25193     25194     25194     25192
     25196     25195     25196     25197     25197     25195     25199     25198
     25199     25200     25200     25198     25202     25201     25202     25203
     25203     25201     25205     25204     25205     25206     25206     25204
     25208     25207     25208     25209     25209     25207     25211     25210
     25211     25212     25212     25210     25214     25213     25214     25215
     25215     25213     25217     25216     25217     25218     25218     25216
     25220     25219     25220     25221     25221     25219     25223     25222
     25223     25224     25224     25222     25226     25225     25226     25227
     25227     25225     25229     25228     25229     25230     25230     25228
     25232     25231     25232     25233     25233     25231     25235     25234
     25235     25236     25236     25234     25238     25237     25238     25239
     25239     25237     25241     25240     25241     25242     25242     25240
     25244     25243     25244     25245     25245     25243     25247     25246
     25247     25248     25248     25246     25250     25249     25250     25251
     25251     25249     25253     25252     25253     25254     25254     25252
     25256     25255     25256     25257     25257     25255     25259     25258
     25259     25260     25260     25258     25262     25261     25262     25263
     25263     25261     25265     25264     25265     25266     25266     25264
     25268     25267     25268     25269     25269     25267     25271     25270
     25271     25272     25272     25270     25274     25273     25274     25275
     25275     25273     25277     25276     25277     25278     25278     25276
     25280     25279     25280     25281     25281     25279     25283     25282
     25283     25284     25284     25282     25286     25285     25286     25287
     25287     25285     25289     25288     25289     25290     25290     25288
     25292     25291     25292     25293     25293     25291     25295     25294
     25295     25296     25296     25294     25298     25297     25298     25299
     25299     25297     25301     25300     25301     25302     25302     25300
     25304     25303     25304     25305     25305     25303     25307     25306
     25307     25308     25308     25306     25310     25309     25310     25311
     25311     25309     25313     25312     25313     25314     25314     25312
     25316     25315     25316     25317     25317     25315     25319     25318
     25319     25320     25320     25318     25322     25321     25322     25323
     25323     25321     25325     25324     25325     25326     25326     25324
     25328     25327     25328     25329     25329     25327     25331     25330
     25331     25332     25332     25330     25334     25333     25334     25335
     25335     25333     25337     25336     25337     25338     25338     25336
     25340     25339     25340     25341     25341     25339     25343     25342
     25343     25344     25344     25342     25346     25345     25346     25347
     25347     25345     25349     25348     25349     25350     25350     25348
     25352     25351     25352     25353     25353     25351     25355     25354
     25355     25356     25356     25354     25358     25357     25358     25359
     25359     25357     25361     25360     25361     25362     25362     25360
     25364     25363     25364     25365     25365     25363     25367     25366
     25367     25368     25368     25366     25370     25369     25370     25371
     25371     25369     25373     25372     25373     25374     25374     25372
     25376     25375     25376     25377     25377     25375     25379     25378
     25379     25380     25380     25378     25382     25381     25382     25383
     25383     25381     25385     25384     25385     25386     25386     25384
     25388     25387     25388     25389     25389     25387     25391     25390
     25391     25392     25392     25390     25394     25393     25394     25395
     25395     25393     25397     25396     25397     25398     25398     25396
     25400     25399     25400     25401     25401     25399     25403     25402
     25403     25404     25404     25402     25406     25405     25406     25407
     25407     25405     25409     25408     25409     25410     25410     25408
     25412     25411     25412     25413     25413     25411     25415     25414
     25415     25416     25416     25414     25418     25417     25418     25419
     25419     25417     25421     25420     25421     25422     25422     25420
     25424     25423     25424     25425     25425     25423     25427     25426
     25427     25428     25428     25426     25430     25429     25430     25431
     25431     25429     25433     25432     25433     25434     25434     25432
     25436     25435     25436     25437     25437     25435     25439     25438
     25439     25440     25440     25438     25442     25441     25442     25443
     25443     25441     25445     25444     25445     25446     25446     25444
     25448     25447     25448     25449     25449     25447     25451     25450
     25451     25452     25452     25450     25454     25453     25454     25455
     25455     25453     25457     25456     25457     25458     25458     25456
     25460     25459     25460     25461     25461     25459     25463     25462
     25463     25464     25464     25462     25466     25465     25466     25467
     25467     25465     25469     25468     25469     25470     25470     25468
     25472     25471     25472     25473     25473     25471     25475     25474
     25475     25476     25476     25474     25478     25477     25478     25479
     25479     25477     25481     25480     25481     25482     25482     25480
     25484     25483     25484     25485     25485     25483     25487     25486
     25487     25488     25488     25486     25490     25489     25490     25491
     25491     25489     25493     25492     25493     25494     25494     25492
     25496     25495     25496     25497     25497     25495     25499     25498
     25499     25500     25500     25498     25502     25501     25502     25503
     25503     25501     25505     25504     25505     25506     25506     25504
     25508     25507     25508     25509     25509     25507     25511     25510
     25511     25512     25512     25510     25514     25513     25514     25515
     25515     25513     25517     25516     25517     25518     25518     25516
     25520     25519     25520     25521     25521     25519     25523     25522
     25523     25524     25524     25522     25526     25525     25526     25527
     25527     25525     25529     25528     25529     25530     25530     25528
     25532     25531     25532     25533     25533     25531     25535     25534
     25535     25536     25536     25534     25538     25537     25538     25539
     25539     25537     25541     25540     25541     25542     25542     25540
     25544     25543     25544     25545     25545     25543     25547     25546
     25547     25548     25548     25546     25550     25549     25550     25551
     25551     25549     25553     25552     25553     25554     25554     25552
     25556     25555     25556     25557     25557     25555     25559     25558
     25559     25560     25560     25558     25562     25561     25562     25563
     25563     25561     25565     25564     25565     25566     25566     25564
     25568     25567     25568     25569     25569     25567     25571     25570
     25571     25572     25572     25570     25574     25573     25574     25575
     25575     25573     25577     25576     25577     25578     25578     25576
     25580     25579     25580     25581     25581     25579     25583     25582
     25583     25584     25584     25582     25586     25585     25586     25587
     25587     25585     25589     25588     25589     25590     25590     25588
     25592     25591     25592     25593     25593     25591     25595     25594
     25595     25596     25596     25594     25598     25597     25598     25599
     25599     25597     25601     25600     25601     25602     25602     25600
     25604     25603     25604     25605     25605     25603     25607     25606
     25607     25608     25608     25606     25610     25609     25610     25611
     25611     25609     25613     25612     25613     25614     25614     25612
     25616     25615     25616     25617     25617     25615     25619     25618
     25619     25620     25620     25618     25622     25621     25622     25623
     25623     25621     25625     25624     25625     25626     25626     25624
     25628     25627     25628     25629     25629     25627     25631     25630
     25631     25632     25632     25630     25634     25633     25634     25635
     25635     25633     25637     25636     25637     25638     25638     25636
     25640     25639     25640     25641     25641     25639     25643     25642
     25643     25644     25644     25642     25646     25645     25646     25647
     25647     25645     25649     25648     25649     25650     25650     25648
     25652     25651     25652     25653     25653     25651     25655     25654
     25655     25656     25656     25654     25658     25657     25658     25659
     25659     25657     25661     25660     25661     25662     25662     25660
     25664     25663     25664     25665     25665     25663     25667     25666
     25667     25668     25668     25666     25670     25669     25670     25671
     25671     25669     25673     25672     25673     25674     25674     25672
     25676     25675     25676     25677     25677     25675     25679     25678
     25679     25680     25680     25678     25682     25681     25682     25683
     25683     25681     25685     25684     25685     25686     25686     25684
     25688     25687     25688     25689     25689     25687     25691     25690
     25691     25692     25692     25690     25694     25693     25694     25695
     25695     25693     25697     25696     25697     25698     25698     25696
     25700     25699     25700     25701     25701     25699     25703     25702
     25703     25704     25704     25702     25706     25705     25706     25707
     25707     25705     25709     25708     25709     25710     25710     25708
     25712     25711     25712     25713     25713     25711     25715     25714
     25715     25716     25716     25714     25718     25717     25718     25719
     25719     25717     25721     25720     25721     25722     25722     25720
     25724     25723     25724     25725     25725     25723     25727     25726
     25727     25728     25728     25726     25730     25729     25730     25731
     25731     25729     25733     25732     25733     25734     25734     25732
     25736     25735     25736     25737     25737     25735     25739     25738
     25739     25740     25740     25738     25742     25741     25742     25743
     25743     25741     25745     25744     25745     25746     25746     25744
     25748     25747     25748     25749     25749     25747     25751     25750
     25751     25752     25752     25750     25754     25753     25754     25755
     25755     25753     25757     25756     25757     25758     25758     25756
     25760     25759     25760     25761     25761     25759     25763     25762
     25763     25764     25764     25762     25766     25765     25766     25767
     25767     25765     25769     25768     25769     25770     25770     25768
     25772     25771     25772     25773     25773     25771     25775     25774
     25775     25776     25776     25774     25778     25777     25778     25779
     25779     25777     25781     25780     25781     25782     25782     25780
     25784     25783     25784     25785     25785     25783     25787     25786
     25787     25788     25788     25786     25790     25789     25790     25791
     25791     25789     25793     25792     25793     25794     25794     25792
     25796     25795     25796     25797     25797     25795     25799     25798
     25799     25800     25800     25798     25802     25801     25802     25803
     25803     25801     25805     25804     25805     25806     25806     25804
     25808     25807     25808     25809     25809     25807     25811     25810
     25811     25812     25812     25810     25814     25813     25814     25815
     25815     25813     25817     25816     25817     25818     25818     25816
     25820     25819     25820     25821     25821     25819     25823     25822
     25823     25824     25824     25822     25826     25825     25826     25827
     25827     25825     25829     25828     25829     25830     25830     25828
     25832     25831     25832     25833     25833     25831     25835     25834
     25835     25836     25836     25834     25838     25837     25838     25839
     25839     25837     25841     25840     25841     25842     25842     25840
     25844     25843     25844     25845     25845     25843     25847     25846
     25847     25848     25848     25846     25850     25849     25850     25851
     25851     25849     25853     25852     25853     25854     25854     25852
     25856     25855     25856     25857     25857     25855     25859     25858
     25859     25860     25860     25858     25862     25861     25862     25863
     25863     25861     25865     25864     25865     25866     25866     25864
     25868     25867     25868     25869     25869     25867     25871     25870
     25871     25872     25872     25870     25874     25873     25874     25875
     25875     25873     25877     25876     25877     25878     25878     25876
     25880     25879     25880     25881     25881     25879     25883     25882
     25883     25884     25884     25882     25886     25885     25886     25887
     25887     25885     25889     25888     25889     25890     25890     25888
     25892     25891     25892     25893     25893     25891     25895     25894
     25895     25896     25896     25894     25898     25897     25898     25899
     25899     25897     25901     25900     25901     25902     25902     25900
     25904     25903     25904     25905     25905     25903     25907     25906
     25907     25908     25908     25906     25910     25909     25910     25911
     25911     25909     25913     25912     25913     25914     25914     25912
     25916     25915     25916     25917     25917     25915     25919     25918
     25919     25920     25920     25918     25922     25921     25922     25923
     25923     25921     25925     25924     25925     25926     25926     25924
     25928     25927     25928     25929     25929     25927     25931     25930
     25931     25932     25932     25930     25934     25933     25934     25935
     25935     25933     25937     25936     25937     25938     25938     25936
     25940     25939     25940     25941     25941     25939     25943     25942
     25943     25944     25944     25942     25946     25945     25946     25947
     25947     25945     25949     25948     25949     25950     25950     25948
     25952     25951     25952     25953     25953     25951     25955     25954
     25955     25956     25956     25954     25958     25957     25958     25959
     25959     25957     25961     25960     25961     25962     25962     25960
     25964     25963     25964     25965     25965     25963     25967     25966
     25967     25968     25968     25966     25970     25969     25970     25971
     25971     25969     25973     25972     25973     25974     25974     25972
     25976     25975     25976     25977     25977     25975     25979     25978
     25979     25980     25980     25978     25982     25981     25982     25983
     25983     25981     25985     25984     25985     25986     25986     25984
     25988     25987     25988     25989     25989     25987     25991     25990
     25991     25992     25992     25990     25994     25993     25994     25995
     25995     25993     25997     25996     25997     25998     25998     25996
     26000     25999     26000     26001     26001     25999     26003     26002
     26003     26004     26004     26002     26006     26005     26006     26007
     26007     26005     26009     26008     26009     26010     26010     26008
     26012     26011     26012     26013     26013     26011     26015     26014
     26015     26016     26016     26014     26018     26017     26018     26019
     26019     26017     26021     26020     26021     26022     26022     26020
     26024     26023     26024     26025     26025     26023     26027     26026
     26027     26028     26028     26026     26030     26029     26030     26031
     26031     26029     26033     26032     26033     26034     26034     26032
     26036     26035     26036     26037     26037     26035     26039     26038
     26039     26040     26040     26038     26042     26041     26042     26043
     26043     26041     26045     26044     26045     26046     26046     26044
     26048     26047     26048     26049     26049     26047     26051     26050
     26051     26052     26052     26050     26054     26053     26054     26055
     26055     26053     26057     26056     26057     26058     26058     26056
     26060     26059     26060     26061     26061     26059     26063     26062
     26063     26064     26064     26062     26066     26065     26066     26067
     26067     26065     26069     26068     26069     26070     26070     26068
     26072     26071     26072     26073     26073     26071     26075     26074
     26075     26076     26076     26074     26078     26077     26078     26079
     26079     26077     26081     26080     26081     26082     26082     26080
     26084     26083     26084     26085     26085     26083     26087     26086
     26087     26088     26088     26086     26090     26089     26090     26091
     26091     26089     26093     26092     26093     26094     26094     26092
     26096     26095     26096     26097     26097     26095     26099     26098
     26099     26100     26100     26098     26102     26101     26102     26103
     26103     26101     26105     26104     26105     26106     26106     26104
     26108     26107     26108     26109     26109     26107     26111     26110
     26111     26112     26112     26110     26114     26113     26114     26115
     26115     26113     26117     26116     26117     26118     26118     26116
     26120     26119     26120     26121     26121     26119     26123     26122
     26123     26124     26124     26122     26126     26125     26126     26127
     26127     26125     26129     26128     26129     26130     26130     26128
     26132     26131     26132     26133     26133     26131     26135     26134
     26135     26136     26136     26134     26138     26137     26138     26139
     26139     26137     26141     26140     26141     26142     26142     26140
     26144     26143     26144     26145     26145     26143     26147     26146
     26147     26148     26148     26146     26150     26149     26150     26151
     26151     26149     26153     26152     26153     26154     26154     26152
     26156     26155     26156     26157     26157     26155     26159     26158
     26159     26160     26160     26158     26162     26161     26162     26163
     26163     26161     26165     26164     26165     26166     26166     26164
     26168     26167     26168     26169     26169     26167     26171     26170
     26171     26172     26172     26170     26174     26173     26174     26175
     26175     26173     26177     26176     26177     26178     26178     26176
     26180     26179     26180     26181     26181     26179     26183     26182
     26183     26184     26184     26182     26186     26185     26186     26187
     26187     26185     26189     26188     26189     26190     26190     26188
     26192     26191     26192     26193     26193     26191     26195     26194
     26195     26196     26196     26194     26198     26197     26198     26199
     26199     26197     26201     26200     26201     26202     26202     26200
     26204     26203     26204     26205     26205     26203     26207     26206
     26207     26208     26208     26206     26210     26209     26210     26211
     26211     26209     26213     26212     26213     26214     26214     26212
     26216     26215     26216     26217     26217     26215     26219     26218
     26219     26220     26220     26218     26222     26221     26222     26223
     26223     26221     26225     26224     26225     26226     26226     26224
     26228     26227     26228     26229     26229     26227     26231     26230
     26231     26232     26232     26230     26234     26233     26234     26235
     26235     26233     26237     26236     26237     26238     26238     26236
     26240     26239     26240     26241     26241     26239     26243     26242
     26243     26244     26244     26242     26246     26245     26246     26247
     26247     26245     26249     26248     26249     26250     26250     26248
     26252     26251     26252     26253     26253     26251     26255     26254
     26255     26256     26256     26254     26258     26257     26258     26259
     26259     26257     26261     26260     26261     26262     26262     26260
     26264     26263     26264     26265     26265     26263     26267     26266
     26267     26268     26268     26266     26270     26269     26270     26271
     26271     26269     26273     26272     26273     26274     26274     26272
     26276     26275     26276     26277     26277     26275     26279     26278
     26279     26280     26280     26278     26282     26281     26282     26283
     26283     26281     26285     26284     26285     26286     26286     26284
     26288     26287     26288     26289     26289     26287     26291     26290
     26291     26292     26292     26290     26294     26293     26294     26295
     26295     26293     26297     26296     26297     26298     26298     26296
     26300     26299     26300     26301     26301     26299     26303     26302
     26303     26304     26304     26302     26306     26305     26306     26307
     26307     26305     26309     26308     26309     26310     26310     26308
     26312     26311     26312     26313     26313     26311     26315     26314
     26315     26316     26316     26314     26318     26317     26318     26319
     26319     26317     26321     26320     26321     26322     26322     26320
     26324     26323     26324     26325     26325     26323     26327     26326
     26327     26328     26328     26326     26330     26329     26330     26331
     26331     26329     26333     26332     26333     26334     26334     26332
     26336     26335     26336     26337     26337     26335     26339     26338
     26339     26340     26340     26338     26342     26341     26342     26343
     26343     26341     26345     26344     26345     26346     26346     26344
     26348     26347     26348     26349     26349     26347     26351     26350
     26351     26352     26352     26350     26354     26353     26354     26355
     26355     26353     26357     26356     26357     26358     26358     26356
     26360     26359     26360     26361     26361     26359     26363     26362
     26363     26364     26364     26362     26366     26365     26366     26367
     26367     26365     26369     26368     26369     26370     26370     26368
     26372     26371     26372     26373     26373     26371     26375     26374
     26375     26376     26376     26374     26378     26377     26378     26379
     26379     26377     26381     26380     26381     26382     26382     26380
     26384     26383     26384     26385     26385     26383     26387     26386
     26387     26388     26388     26386     26390     26389     26390     26391
     26391     26389     26393     26392     26393     26394     26394     26392
     26396     26395     26396     26397     26397     26395     26399     26398
     26399     26400     26400     26398     26402     26401     26402     26403
     26403     26401     26405     26404     26405     26406     26406     26404
     26408     26407     26408     26409     26409     26407     26411     26410
     26411     26412     26412     26410     26414     26413     26414     26415
     26415     26413     26417     26416     26417     26418     26418     26416
     26420     26419     26420     26421     26421     26419     26423     26422
     26423     26424     26424     26422     26426     26425     26426     26427
     26427     26425     26429     26428     26429     26430     26430     26428
     26432     26431     26432     26433     26433     26431     26435     26434
     26435     26436     26436     26434     26438     26437     26438     26439
     26439     26437     26441     26440     26441     26442     26442     26440
     26444     26443     26444     26445     26445     26443     26447     26446
     26447     26448     26448     26446     26450     26449     26450     26451
     26451     26449     26453     26452     26453     26454     26454     26452
     26456     26455     26456     26457     26457     26455     26459     26458
     26459     26460     26460     26458     26462     26461     26462     26463
     26463     26461     26465     26464     26465     26466     26466     26464
     26468     26467     26468     26469     26469     26467     26471     26470
     26471     26472     26472     26470     26474     26473     26474     26475
     26475     26473     26477     26476     26477     26478     26478     26476
     26480     26479     26480     26481     26481     26479     26483     26482
     26483     26484     26484     26482     26486     26485     26486     26487
     26487     26485     26489     26488     26489     26490     26490     26488
     26492     26491     26492     26493     26493     26491     26495     26494
     26495     26496     26496     26494     26498     26497     26498     26499
     26499     26497     26501     26500     26501     26502     26502     26500
     26504     26503     26504     26505     26505     26503     26507     26506
     26507     26508     26508     26506     26510     26509     26510     26511
     26511     26509     26513     26512     26513     26514     26514     26512
     26516     26515     26516     26517     26517     26515     26519     26518
     26519     26520     26520     26518     26522     26521     26522     26523
     26523     26521     26525     26524     26525     26526     26526     26524
     26528     26527     26528     26529     26529     26527     26531     26530
     26531     26532     26532     26530     26534     26533     26534     26535
     26535     26533     26537     26536     26537     26538     26538     26536
     26540     26539     26540     26541     26541     26539     26543     26542
     26543     26544     26544     26542     26546     26545     26546     26547
     26547     26545     26549     26548     26549     26550     26550     26548
     26552     26551     26552     26553     26553     26551     26555     26554
     26555     26556     26556     26554     26558     26557     26558     26559
     26559     26557     26561     26560     26561     26562     26562     26560
     26564     26563     26564     26565     26565     26563     26567     26566
     26567     26568     26568     26566     26570     26569     26570     26571
     26571     26569     26573     26572     26573     26574     26574     26572
     26576     26575     26576     26577     26577     26575     26579     26578
     26579     26580     26580     26578     26582     26581     26582     26583
     26583     26581     26585     26584     26585     26586     26586     26584
     26588     26587     26588     26589     26589     26587     26591     26590
     26591     26592     26592     26590     26594     26593     26594     26595
     26595     26593     26597     26596     26597     26598     26598     26596
     26600     26599     26600     26601     26601     26599     26603     26602
     26603     26604     26604     26602     26606     26605     26606     26607
     26607     26605     26609     26608     26609     26610     26610     26608
     26612     26611     26612     26613     26613     26611     26615     26614
     26615     26616     26616     26614     26618     26617     26618     26619
     26619     26617     26621     26620     26621     26622     26622     26620
     26624     26623     26624     26625     26625     26623     26627     26626
     26627     26628     26628     26626     26630     26629     26630     26631
     26631     26629     26633     26632     26633     26634     26634     26632
     26636     26635     26636     26637     26637     26635     26639     26638
     26639     26640     26640     26638     26642     26641     26642     26643
     26643     26641     26645     26644     26645     26646     26646     26644
     26648     26647     26648     26649     26649     26647     26651     26650
     26651     26652     26652     26650     26654     26653     26654     26655
     26655     26653     26657     26656     26657     26658     26658     26656
     26660     26659     26660     26661     26661     26659     26663     26662
     26663     26664     26664     26662     26666     26665     26666     26667
     26667     26665     26669     26668     26669     26670     26670     26668
     26672     26671     26672     26673     26673     26671     26675     26674
     26675     26676     26676     26674     26678     26677     26678     26679
     26679     26677     26681     26680     26681     26682     26682     26680
     26684     26683     26684     26685     26685     26683     26687     26686
     26687     26688     26688     26686     26690     26689     26690     26691
     26691     26689     26693     26692     26693     26694     26694     26692
     26696     26695     26696     26697     26697     26695     26699     26698
     26699     26700     26700     26698     26702     26701     26702     26703
     26703     26701     26705     26704     26705     26706     26706     26704
     26708     26707     26708     26709     26709     26707     26711     26710
     26711     26712     26712     26710     26714     26713     26714     26715
     26715     26713     26717     26716     26717     26718     26718     26716
     26720     26719     26720     26721     26721     26719     26723     26722
     26723     26724     26724     26722     26726     26725     26726     26727
     26727     26725     26729     26728     26729     26730     26730     26728
     26732     26731     26732     26733     26733     26731     26735     26734
     26735     26736     26736     26734     26738     26737     26738     26739
     26739     26737     26741     26740     26741     26742     26742     26740
     26744     26743     26744     26745     26745     26743     26747     26746
     26747     26748     26748     26746     26750     26749     26750     26751
     26751     26749     26753     26752     26753     26754     26754     26752
     26756     26755     26756     26757     26757     26755     26759     26758
     26759     26760     26760     26758     26762     26761     26762     26763
     26763     26761     26765     26764     26765     26766     26766     26764
     26768     26767     26768     26769     26769     26767     26771     26770
     26771     26772     26772     26770     26774     26773     26774     26775
     26775     26773     26777     26776     26777     26778     26778     26776
     26780     26779     26780     26781     26781     26779     26783     26782
     26783     26784     26784     26782     26786     26785     26786     26787
     26787     26785     26789     26788     26789     26790     26790     26788
     26792     26791     26792     26793     26793     26791     26795     26794
     26795     26796     26796     26794     26798     26797     26798     26799
     26799     26797     26801     26800     26801     26802     26802     26800
     26804     26803     26804     26805     26805     26803     26807     26806
     26807     26808     26808     26806     26810     26809     26810     26811
     26811     26809     26813     26812     26813     26814     26814     26812
     26816     26815     26816     26817     26817     26815     26819     26818
     26819     26820     26820     26818     26822     26821     26822     26823
     26823     26821     26825     26824     26825     26826     26826     26824
     26828     26827     26828     26829     26829     26827     26831     26830
     26831     26832     26832     26830     26834     26833     26834     26835
     26835     26833     26837     26836     26837     26838     26838     26836
     26840     26839     26840     26841     26841     26839     26843     26842
     26843     26844     26844     26842     26846     26845     26846     26847
     26847     26845     26849     26848     26849     26850     26850     26848
     26852     26851     26852     26853     26853     26851     26855     26854
     26855     26856     26856     26854     26858     26857     26858     26859
     26859     26857     26861     26860     26861     26862     26862     26860
     26864     26863     26864     26865     26865     26863     26867     26866
     26867     26868     26868     26866     26870     26869     26870     26871
     26871     26869     26873     26872     26873     26874     26874     26872
     26876     26875     26876     26877     26877     26875     26879     26878
     26879     26880     26880     26878     26882     26881     26882     26883
     26883     26881     26885     26884     26885     26886     26886     26884
     26888     26887     26888     26889     26889     26887     26891     26890
     26891     26892     26892     26890     26894     26893     26894     26895
     26895     26893     26897     26896     26897     26898     26898     26896
     26900     26899     26900     26901     26901     26899     26903     26902
     26903     26904     26904     26902     26906     26905     26906     26907
     26907     26905     26909     26908     26909     26910     26910     26908
     26912     26911     26912     26913     26913     26911     26915     26914
     26915     26916     26916     26914     26918     26917     26918     26919
     26919     26917     26921     26920     26921     26922     26922     26920
     26924     26923     26924     26925     26925     26923     26927     26926
     26927     26928     26928     26926     26930     26929     26930     26931
     26931     26929     26933     26932     26933     26934     26934     26932
     26936     26935     26936     26937     26937     26935     26939     26938
     26939     26940     26940     26938     26942     26941     26942     26943
     26943     26941     26945     26944     26945     26946     26946     26944
     26948     26947     26948     26949     26949     26947     26951     26950
     26951     26952     26952     26950     26954     26953     26954     26955
     26955     26953     26957     26956     26957     26958     26958     26956
     26960     26959     26960     26961     26961     26959     26963     26962
     26963     26964     26964     26962     26966     26965     26966     26967
     26967     26965     26969     26968     26969     26970     26970     26968
     26972     26971     26972     26973     26973     26971     26975     26974
     26975     26976     26976     26974     26978     26977     26978     26979
     26979     26977     26981     26980     26981     26982     26982     26980
     26984     26983     26984     26985     26985     26983     26987     26986
     26987     26988     26988     26986     26990     26989     26990     26991
     26991     26989     26993     26992     26993     26994     26994     26992
     26996     26995     26996     26997     26997     26995     26999     26998
     26999     27000     27000     26998     27002     27001     27002     27003
     27003     27001     27005     27004     27005     27006     27006     27004
     27008     27007     27008     27009     27009     27007     27011     27010
     27011     27012     27012     27010     27014     27013     27014     27015
     27015     27013     27017     27016     27017     27018     27018     27016
     27020     27019     27020     27021     27021     27019     27023     27022
     27023     27024     27024     27022     27026     27025     27026     27027
     27027     27025     27029     27028     27029     27030     27030     27028
     27032     27031     27032     27033     27033     27031     27035     27034
     27035     27036     27036     27034     27038     27037     27038     27039
     27039     27037     27041     27040     27041     27042     27042     27040
     27044     27043     27044     27045     27045     27043     27047     27046
     27047     27048     27048     27046     27050     27049     27050     27051
     27051     27049     27053     27052     27053     27054     27054     27052
     27056     27055     27056     27057     27057     27055     27059     27058
     27059     27060     27060     27058     27062     27061     27062     27063
     27063     27061     27065     27064     27065     27066     27066     27064
     27068     27067     27068     27069     27069     27067     27071     27070
     27071     27072     27072     27070     27074     27073     27074     27075
     27075     27073     27077     27076     27077     27078     27078     27076
     27080     27079     27080     27081     27081     27079     27083     27082
     27083     27084     27084     27082     27086     27085     27086     27087
     27087     27085     27089     27088     27089     27090     27090     27088
     27092     27091     27092     27093     27093     27091     27095     27094
     27095     27096     27096     27094     27098     27097     27098     27099
     27099     27097     27101     27100     27101     27102     27102     27100
     27104     27103     27104     27105     27105     27103     27107     27106
     27107     27108     27108     27106     27110     27109     27110     27111
     27111     27109     27113     27112     27113     27114     27114     27112
     27116     27115     27116     27117     27117     27115     27119     27118
     27119     27120     27120     27118     27122     27121     27122     27123
     27123     27121     27125     27124     27125     27126     27126     27124
     27128     27127     27128     27129     27129     27127     27131     27130
     27131     27132     27132     27130     27134     27133     27134     27135
     27135     27133     27137     27136     27137     27138     27138     27136
     27140     27139     27140     27141     27141     27139     27143     27142
     27143     27144     27144     27142     27146     27145     27146     27147
     27147     27145     27149     27148     27149     27150     27150     27148
     27152     27151     27152     27153     27153     27151     27155     27154
     27155     27156     27156     27154     27158     27157     27158     27159
     27159     27157     27161     27160     27161     27162     27162     27160
     27164     27163     27164     27165     27165     27163     27167     27166
     27167     27168     27168     27166     27170     27169     27170     27171
     27171     27169     27173     27172     27173     27174     27174     27172
     27176     27175     27176     27177     27177     27175     27179     27178
     27179     27180     27180     27178     27182     27181     27182     27183
     27183     27181     27185     27184     27185     27186     27186     27184
     27188     27187     27188     27189     27189     27187     27191     27190
     27191     27192     27192     27190     27194     27193     27194     27195
     27195     27193     27197     27196     27197     27198     27198     27196
     27200     27199     27200     27201     27201     27199     27203     27202
     27203     27204     27204     27202     27206     27205     27206     27207
     27207     27205     27209     27208     27209     27210     27210     27208
     27212     27211     27212     27213     27213     27211     27215     27214
     27215     27216     27216     27214     27218     27217     27218     27219
     27219     27217     27221     27220     27221     27222     27222     27220
     27224     27223     27224     27225     27225     27223     27227     27226
     27227     27228     27228     27226     27230     27229     27230     27231
     27231     27229     27233     27232     27233     27234     27234     27232
     27236     27235     27236     27237     27237     27235     27239     27238
     27239     27240     27240     27238     27242     27241     27242     27243
     27243     27241     27245     27244     27245     27246     27246     27244
     27248     27247     27248     27249     27249     27247     27251     27250
     27251     27252     27252     27250     27254     27253     27254     27255
     27255     27253     27257     27256     27257     27258     27258     27256
     27260     27259     27260     27261     27261     27259     27263     27262
     27263     27264     27264     27262     27266     27265     27266     27267
     27267     27265     27269     27268     27269     27270     27270     27268
     27272     27271     27272     27273     27273     27271     27275     27274
     27275     27276     27276     27274     27278     27277     27278     27279
     27279     27277     27281     27280     27281     27282     27282     27280
     27284     27283     27284     27285     27285     27283     27287     27286
     27287     27288     27288     27286     27290     27289     27290     27291
     27291     27289     27293     27292     27293     27294     27294     27292
     27296     27295     27296     27297     27297     27295     27299     27298
     27299     27300     27300     27298     27302     27301     27302     27303
     27303     27301     27305     27304     27305     27306     27306     27304
     27308     27307     27308     27309     27309     27307     27311     27310
     27311     27312     27312     27310     27314     27313     27314     27315
     27315     27313     27317     27316     27317     27318     27318     27316
     27320     27319     27320     27321     27321     27319     27323     27322
     27323     27324     27324     27322     27326     27325     27326     27327
     27327     27325     27329     27328     27329     27330     27330     27328
     27332     27331     27332     27333     27333     27331     27335     27334
     27335     27336     27336     27334     27338     27337     27338     27339
     27339     27337     27341     27340     27341     27342     27342     27340
     27344     27343     27344     27345     27345     27343     27347     27346
     27347     27348     27348     27346     27350     27349     27350     27351
     27351     27349     27353     27352     27353     27354     27354     27352
     27356     27355     27356     27357     27357     27355     27359     27358
     27359     27360     27360     27358     27362     27361     27362     27363
     27363     27361     27365     27364     27365     27366     27366     27364
     27368     27367     27368     27369     27369     27367     27371     27370
     27371     27372     27372     27370     27374     27373     27374     27375
     27375     27373     27377     27376     27377     27378     27378     27376
     27380     27379     27380     27381     27381     27379     27383     27382
     27383     27384     27384     27382     27386     27385     27386     27387
     27387     27385     27389     27388     27389     27390     27390     27388
     27392     27391     27392     27393     27393     27391     27395     27394
     27395     27396     27396     27394     27398     27397     27398     27399
     27399     27397     27401     27400     27401     27402     27402     27400
     27404     27403     27404     27405     27405     27403     27407     27406
     27407     27408     27408     27406     27410     27409     27410     27411
     27411     27409     27413     27412     27413     27414     27414     27412
     27416     27415     27416     27417     27417     27415     27419     27418
     27419     27420     27420     27418     27422     27421     27422     27423
     27423     27421     27425     27424     27425     27426     27426     27424
     27428     27427     27428     27429     27429     27427     27431     27430
     27431     27432     27432     27430     27434     27433     27434     27435
     27435     27433     27437     27436     27437     27438     27438     27436
     27440     27439     27440     27441     27441     27439     27443     27442
     27443     27444     27444     27442     27446     27445     27446     27447
     27447     27445     27449     27448     27449     27450     27450     27448
     27452     27451     27452     27453     27453     27451     27455     27454
     27455     27456     27456     27454     27458     27457     27458     27459
     27459     27457     27461     27460     27461     27462     27462     27460
     27464     27463     27464     27465     27465     27463     27467     27466
     27467     27468     27468     27466     27470     27469     27470     27471
     27471     27469     27473     27472     27473     27474     27474     27472
     27476     27475     27476     27477     27477     27475     27479     27478
     27479     27480     27480     27478     27482     27481     27482     27483
     27483     27481     27485     27484     27485     27486     27486     27484
     27488     27487     27488     27489     27489     27487     27491     27490
     27491     27492     27492     27490     27494     27493     27494     27495
     27495     27493     27497     27496     27497     27498     27498     27496
     27500     27499     27500     27501     27501     27499     27503     27502
     27503     27504     27504     27502     27506     27505     27506     27507
     27507     27505     27509     27508     27509     27510     27510     27508
     27512     27511     27512     27513     27513     27511     27515     27514
     27515     27516     27516     27514     27518     27517     27518     27519
     27519     27517     27521     27520     27521     27522     27522     27520
     27524     27523     27524     27525     27525     27523     27527     27526
     27527     27528     27528     27526     27530     27529     27530     27531
     27531     27529     27533     27532     27533     27534     27534     27532
     27536     27535     27536     27537     27537     27535     27539     27538
     27539     27540     27540     27538     27542     27541     27542     27543
     27543     27541     27545     27544     27545     27546     27546     27544
     27548     27547     27548     27549     27549     27547     27551     27550
     27551     27552     27552     27550     27554     27553     27554     27555
     27555     27553     27557     27556     27557     27558     27558     27556
     27560     27559     27560     27561     27561     27559     27563     27562
     27563     27564     27564     27562     27566     27565     27566     27567
     27567     27565     27569     27568     27569     27570     27570     27568
     27572     27571     27572     27573     27573     27571     27575     27574
     27575     27576     27576     27574     27578     27577     27578     27579
     27579     27577     27581     27580     27581     27582     27582     27580
     27584     27583     27584     27585     27585     27583     27587     27586
     27587     27588     27588     27586     27590     27589     27590     27591
     27591     27589     27593     27592     27593     27594     27594     27592
     27596     27595     27596     27597     27597     27595     27599     27598
     27599     27600     27600     27598     27602     27601     27602     27603
     27603     27601     27605     27604     27605     27606     27606     27604
     27608     27607     27608     27609     27609     27607     27611     27610
     27611     27612     27612     27610     27614     27613     27614     27615
     27615     27613     27617     27616     27617     27618     27618     27616
     27620     27619     27620     27621     27621     27619     27623     27622
     27623     27624     27624     27622     27626     27625     27626     27627
     27627     27625     27629     27628     27629     27630     27630     27628
     27632     27631     27632     27633     27633     27631     27635     27634
     27635     27636     27636     27634     27638     27637     27638     27639
     27639     27637     27641     27640     27641     27642     27642     27640
     27644     27643     27644     27645     27645     27643     27647     27646
     27647     27648     27648     27646     27650     27649     27650     27651
     27651     27649     27653     27652     27653     27654     27654     27652
     27656     27655     27656     27657     27657     27655     27659     27658
     27659     27660     27660     27658     27662     27661     27662     27663
     27663     27661     27665     27664     27665     27666     27666     27664
     27668     27667     27668     27669     27669     27667     27671     27670
     27671     27672     27672     27670     27674     27673     27674     27675
     27675     27673     27677     27676     27677     27678     27678     27676
     27680     27679     27680     27681     27681     27679     27683     27682
     27683     27684     27684     27682     27686     27685     27686     27687
     27687     27685     27689     27688     27689     27690     27690     27688
     27692     27691     27692     27693     27693     27691     27695     27694
     27695     27696     27696     27694     27698     27697     27698     27699
     27699     27697     27701     27700     27701     27702     27702     27700
     27704     27703     27704     27705     27705     27703     27707     27706
     27707     27708     27708     27706     27710     27709     27710     27711
     27711     27709     27713     27712     27713     27714     27714     27712
     27716     27715     27716     27717     27717     27715     27719     27718
     27719     27720     27720     27718     27722     27721     27722     27723
     27723     27721     27725     27724     27725     27726     27726     27724
     27728     27727     27728     27729     27729     27727     27731     27730
     27731     27732     27732     27730     27734     27733     27734     27735
     27735     27733     27737     27736     27737     27738     27738     27736
     27740     27739     27740     27741     27741     27739     27743     27742
     27743     27744     27744     27742     27746     27745     27746     27747
     27747     27745     27749     27748     27749     27750     27750     27748
     27752     27751     27752     27753     27753     27751     27755     27754
     27755     27756     27756     27754     27758     27757     27758     27759
     27759     27757     27761     27760     27761     27762     27762     27760
     27764     27763     27764     27765     27765     27763     27767     27766
     27767     27768     27768     27766     27770     27769     27770     27771
     27771     27769     27773     27772     27773     27774     27774     27772
     27776     27775     27776     27777     27777     27775     27779     27778
     27779     27780     27780     27778     27782     27781     27782     27783
     27783     27781     27785     27784     27785     27786     27786     27784
     27788     27787     27788     27789     27789     27787     27791     27790
     27791     27792     27792     27790     27794     27793     27794     27795
     27795     27793     27797     27796     27797     27798     27798     27796
     27800     27799     27800     27801     27801     27799     27803     27802
     27803     27804     27804     27802     27806     27805     27806     27807
     27807     27805     27809     27808     27809     27810     27810     27808
     27812     27811     27812     27813     27813     27811     27815     27814
     27815     27816     27816     27814     27818     27817     27818     27819
     27819     27817     27821     27820     27821     27822     27822     27820
     27824     27823     27824     27825     27825     27823     27827     27826
     27827     27828     27828     27826     27830     27829     27830     27831
     27831     27829     27833     27832     27833     27834     27834     27832
     27836     27835     27836     27837     27837     27835     27839     27838
     27839     27840     27840     27838     27842     27841     27842     27843
     27843     27841     27845     27844     27845     27846     27846     27844
     27848     27847     27848     27849     27849     27847     27851     27850
     27851     27852     27852     27850     27854     27853     27854     27855
     27855     27853     27857     27856     27857     27858     27858     27856
     27860     27859     27860     27861     27861     27859     27863     27862
     27863     27864     27864     27862     27866     27865     27866     27867
     27867     27865     27869     27868     27869     27870     27870     27868
     27872     27871     27872     27873     27873     27871     27875     27874
     27875     27876     27876     27874     27878     27877     27878     27879
     27879     27877     27881     27880     27881     27882     27882     27880
     27884     27883     27884     27885     27885     27883     27887     27886
     27887     27888     27888     27886     27890     27889     27890     27891
     27891     27889     27893     27892     27893     27894     27894     27892
     27896     27895     27896     27897     27897     27895     27899     27898
     27899     27900     27900     27898     27902     27901     27902     27903
     27903     27901     27905     27904     27905     27906     27906     27904
     27908     27907     27908     27909     27909     27907     27911     27910
     27911     27912     27912     27910     27914     27913     27914     27915
     27915     27913     27917     27916     27917     27918     27918     27916
     27920     27919     27920     27921     27921     27919     27923     27922
     27923     27924     27924     27922     27926     27925     27926     27927
     27927     27925     27929     27928     27929     27930     27930     27928
     27932     27931     27932     27933     27933     27931     27935     27934
     27935     27936     27936     27934     27938     27937     27938     27939
     27939     27937     27941     27940     27941     27942     27942     27940
     27944     27943     27944     27945     27945     27943     27947     27946
     27947     27948     27948     27946     27950     27949     27950     27951
     27951     27949     27953     27952     27953     27954     27954     27952
     27956     27955     27956     27957     27957     27955     27959     27958
     27959     27960     27960     27958     27962     27961     27962     27963
     27963     27961     27965     27964     27965     27966     27966     27964
     27968     27967     27968     27969     27969     27967     27971     27970
     27971     27972     27972     27970     27974     27973     27974     27975
     27975     27973     27977     27976     27977     27978     27978     27976
     27980     27979     27980     27981     27981     27979     27983     27982
     27983     27984     27984     27982     27986     27985     27986     27987
     27987     27985     27989     27988     27989     27990     27990     27988
     27992     27991     27992     27993     27993     27991     27995     27994
     27995     27996     27996     27994     27998     27997     27998     27999
     27999     27997     28001     28000     28001     28002     28002     28000
     28004     28003     28004     28005     28005     28003     28007     28006
     28007     28008     28008     28006     28010     28009     28010     28011
     28011     28009     28013     28012     28013     28014     28014     28012
     28016     28015     28016     28017     28017     28015     28019     28018
     28019     28020     28020     28018     28022     28021     28022     28023
     28023     28021     28025     28024     28025     28026     28026     28024
     28028     28027     28028     28029     28029     28027     28031     28030
     28031     28032     28032     28030     28034     28033     28034     28035
     28035     28033     28037     28036     28037     28038     28038     28036
     28040     28039     28040     28041     28041     28039     28043     28042
     28043     28044     28044     28042     28046     28045     28046     28047
     28047     28045     28049     28048     28049     28050     28050     28048
     28052     28051     28052     28053     28053     28051     28055     28054
     28055     28056     28056     28054     28058     28057     28058     28059
     28059     28057     28061     28060     28061     28062     28062     28060
     28064     28063     28064     28065     28065     28063     28067     28066
     28067     28068     28068     28066     28070     28069     28070     28071
     28071     28069     28073     28072     28073     28074     28074     28072
     28076     28075     28076     28077     28077     28075     28079     28078
     28079     28080     28080     28078     28082     28081     28082     28083
     28083     28081     28085     28084     28085     28086     28086     28084
     28088     28087     28088     28089     28089     28087     28091     28090
     28091     28092     28092     28090     28094     28093     28094     28095
     28095     28093     28097     28096     28097     28098     28098     28096
     28100     28099     28100     28101     28101     28099     28103     28102
     28103     28104     28104     28102     28106     28105     28106     28107
     28107     28105     28109     28108     28109     28110     28110     28108
     28112     28111     28112     28113     28113     28111     28115     28114
     28115     28116     28116     28114     28118     28117     28118     28119
     28119     28117     28121     28120     28121     28122     28122     28120
     28124     28123     28124     28125     28125     28123     28127     28126
     28127     28128     28128     28126     28130     28129     28130     28131
     28131     28129     28133     28132     28133     28134     28134     28132
     28136     28135     28136     28137     28137     28135     28139     28138
     28139     28140     28140     28138     28142     28141     28142     28143
     28143     28141     28145     28144     28145     28146     28146     28144
     28148     28147     28148     28149     28149     28147     28151     28150
     28151     28152     28152     28150     28154     28153     28154     28155
     28155     28153     28157     28156     28157     28158     28158     28156
     28160     28159     28160     28161     28161     28159     28163     28162
     28163     28164     28164     28162     28166     28165     28166     28167
     28167     28165     28169     28168     28169     28170     28170     28168
     28172     28171     28172     28173     28173     28171     28175     28174
     28175     28176     28176     28174     28178     28177     28178     28179
     28179     28177     28181     28180     28181     28182     28182     28180
     28184     28183     28184     28185     28185     28183     28187     28186
     28187     28188     28188     28186     28190     28189     28190     28191
     28191     28189     28193     28192     28193     28194     28194     28192
     28196     28195     28196     28197     28197     28195     28199     28198
     28199     28200     28200     28198     28202     28201     28202     28203
     28203     28201     28205     28204     28205     28206     28206     28204
     28208     28207     28208     28209     28209     28207     28211     28210
     28211     28212     28212     28210     28214     28213     28214     28215
     28215     28213     28217     28216     28217     28218     28218     28216
     28220     28219     28220     28221     28221     28219     28223     28222
     28223     28224     28224     28222     28226     28225     28226     28227
     28227     28225     28229     28228     28229     28230     28230     28228
     28232     28231     28232     28233     28233     28231     28235     28234
     28235     28236     28236     28234     28238     28237     28238     28239
     28239     28237     28241     28240     28241     28242     28242     28240
     28244     28243     28244     28245     28245     28243     28247     28246
     28247     28248     28248     28246     28250     28249     28250     28251
     28251     28249     28253     28252     28253     28254     28254     28252
     28256     28255     28256     28257     28257     28255     28259     28258
     28259     28260     28260     28258     28262     28261     28262     28263
     28263     28261     28265     28264     28265     28266     28266     28264
     28268     28267     28268     28269     28269     28267     28271     28270
     28271     28272     28272     28270     28274     28273     28274     28275
     28275     28273     28277     28276     28277     28278     28278     28276
     28280     28279     28280     28281     28281     28279     28283     28282
     28283     28284     28284     28282     28286     28285     28286     28287
     28287     28285     28289     28288     28289     28290     28290     28288
     28292     28291     28292     28293     28293     28291     28295     28294
     28295     28296     28296     28294     28298     28297     28298     28299
     28299     28297     28301     28300     28301     28302     28302     28300
     28304     28303     28304     28305     28305     28303     28307     28306
     28307     28308     28308     28306     28310     28309     28310     28311
     28311     28309     28313     28312     28313     28314     28314     28312
     28316     28315     28316     28317     28317     28315     28319     28318
     28319     28320     28320     28318     28322     28321     28322     28323
     28323     28321     28325     28324     28325     28326     28326     28324
     28328     28327     28328     28329     28329     28327     28331     28330
     28331     28332     28332     28330     28334     28333     28334     28335
     28335     28333     28337     28336     28337     28338     28338     28336
     28340     28339     28340     28341     28341     28339     28343     28342
     28343     28344     28344     28342     28346     28345     28346     28347
     28347     28345     28349     28348     28349     28350     28350     28348
     28352     28351     28352     28353     28353     28351     28355     28354
     28355     28356     28356     28354     28358     28357     28358     28359
     28359     28357     28361     28360     28361     28362     28362     28360
     28364     28363     28364     28365     28365     28363     28367     28366
     28367     28368     28368     28366     28370     28369     28370     28371
     28371     28369     28373     28372     28373     28374     28374     28372
     28376     28375     28376     28377     28377     28375     28379     28378
     28379     28380     28380     28378     28382     28381     28382     28383
     28383     28381     28385     28384     28385     28386     28386     28384
     28388     28387     28388     28389     28389     28387     28391     28390
     28391     28392     28392     28390     28394     28393     28394     28395
     28395     28393     28397     28396     28397     28398     28398     28396
     28400     28399     28400     28401     28401     28399     28403     28402
     28403     28404     28404     28402     28406     28405     28406     28407
     28407     28405     28409     28408     28409     28410     28410     28408
     28412     28411     28412     28413     28413     28411     28415     28414
     28415     28416     28416     28414     28418     28417     28418     28419
     28419     28417     28421     28420     28421     28422     28422     28420
     28424     28423     28424     28425     28425     28423     28427     28426
     28427     28428     28428     28426     28430     28429     28430     28431
     28431     28429     28433     28432     28433     28434     28434     28432
     28436     28435     28436     28437     28437     28435     28439     28438
     28439     28440     28440     28438     28442     28441     28442     28443
     28443     28441     28445     28444     28445     28446     28446     28444
     28448     28447     28448     28449     28449     28447     28451     28450
     28451     28452     28452     28450     28454     28453     28454     28455
     28455     28453     28457     28456     28457     28458     28458     28456
     28460     28459     28460     28461     28461     28459     28463     28462
     28463     28464     28464     28462     28466     28465     28466     28467
     28467     28465     28469     28468     28469     28470     28470     28468
     28472     28471     28472     28473     28473     28471     28475     28474
     28475     28476     28476     28474     28478     28477     28478     28479
     28479     28477     28481     28480     28481     28482     28482     28480
     28484     28483     28484     28485     28485     28483     28487     28486
     28487     28488     28488     28486     28490     28489     28490     28491
     28491     28489     28493     28492     28493     28494     28494     28492
     28496     28495     28496     28497     28497     28495     28499     28498
     28499     28500     28500     28498     28502     28501     28502     28503
     28503     28501     28505     28504     28505     28506     28506     28504
     28508     28507     28508     28509     28509     28507     28511     28510
     28511     28512     28512     28510     28514     28513     28514     28515
     28515     28513     28517     28516     28517     28518     28518     28516
     28520     28519     28520     28521     28521     28519     28523     28522
     28523     28524     28524     28522     28526     28525     28526     28527
     28527     28525     28529     28528     28529     28530     28530     28528
     28532     28531     28532     28533     28533     28531     28535     28534
     28535     28536     28536     28534     28538     28537     28538     28539
     28539     28537     28541     28540     28541     28542     28542     28540
     28544     28543     28544     28545     28545     28543     28547     28546
     28547     28548     28548     28546     28550     28549     28550     28551
     28551     28549     28553     28552     28553     28554     28554     28552
     28556     28555     28556     28557     28557     28555     28559     28558
     28559     28560     28560     28558     28562     28561     28562     28563
     28563     28561     28565     28564     28565     28566     28566     28564
     28568     28567     28568     28569     28569     28567     28571     28570
     28571     28572     28572     28570     28574     28573     28574     28575
     28575     28573     28577     28576     28577     28578     28578     28576
     28580     28579     28580     28581     28581     28579     28583     28582
     28583     28584     28584     28582     28586     28585     28586     28587
     28587     28585     28589     28588     28589     28590     28590     28588
     28592     28591     28592     28593     28593     28591     28595     28594
     28595     28596     28596     28594     28598     28597     28598     28599
     28599     28597     28601     28600     28601     28602     28602     28600
     28604     28603     28604     28605     28605     28603     28607     28606
     28607     28608     28608     28606     28610     28609     28610     28611
     28611     28609     28613     28612     28613     28614     28614     28612
     28616     28615     28616     28617     28617     28615     28619     28618
     28619     28620     28620     28618     28622     28621     28622     28623
     28623     28621     28625     28624     28625     28626     28626     28624
     28628     28627     28628     28629     28629     28627     28631     28630
     28631     28632     28632     28630     28634     28633     28634     28635
     28635     28633     28637     28636     28637     28638     28638     28636
     28640     28639     28640     28641     28641     28639     28643     28642
     28643     28644     28644     28642     28646     28645     28646     28647
     28647     28645     28649     28648     28649     28650     28650     28648
     28652     28651     28652     28653     28653     28651     28655     28654
     28655     28656     28656     28654     28658     28657     28658     28659
     28659     28657     28661     28660     28661     28662     28662     28660
     28664     28663     28664     28665     28665     28663     28667     28666
     28667     28668     28668     28666     28670     28669     28670     28671
     28671     28669     28673     28672     28673     28674     28674     28672
     28676     28675     28676     28677     28677     28675     28679     28678
     28679     28680     28680     28678     28682     28681     28682     28683
     28683     28681     28685     28684     28685     28686     28686     28684
     28688     28687     28688     28689     28689     28687     28691     28690
     28691     28692     28692     28690     28694     28693     28694     28695
     28695     28693     28697     28696     28697     28698     28698     28696
     28700     28699     28700     28701     28701     28699     28703     28702
     28703     28704     28704     28702     28706     28705     28706     28707
     28707     28705     28709     28708     28709     28710     28710     28708
     28712     28711     28712     28713     28713     28711     28715     28714
     28715     28716     28716     28714     28718     28717     28718     28719
     28719     28717     28721     28720     28721     28722     28722     28720
     28724     28723     28724     28725     28725     28723     28727     28726
     28727     28728     28728     28726     28730     28729     28730     28731
     28731     28729     28733     28732     28733     28734     28734     28732
     28736     28735     28736     28737     28737     28735     28739     28738
     28739     28740     28740     28738     28742     28741     28742     28743
     28743     28741     28745     28744     28745     28746     28746     28744
     28748     28747     28748     28749     28749     28747     28751     28750
     28751     28752     28752     28750     28754     28753     28754     28755
     28755     28753     28757     28756     28757     28758     28758     28756
     28760     28759     28760     28761     28761     28759     28763     28762
     28763     28764     28764     28762     28766     28765     28766     28767
     28767     28765     28769     28768     28769     28770     28770     28768
     28772     28771     28772     28773     28773     28771     28775     28774
     28775     28776     28776     28774     28778     28777     28778     28779
     28779     28777     28781     28780     28781     28782     28782     28780
     28784     28783     28784     28785     28785     28783     28787     28786
     28787     28788     28788     28786     28790     28789     28790     28791
     28791     28789     28793     28792     28793     28794     28794     28792
     28796     28795     28796     28797     28797     28795     28799     28798
     28799     28800     28800     28798     28802     28801     28802     28803
     28803     28801     28805     28804     28805     28806     28806     28804
     28808     28807     28808     28809     28809     28807     28811     28810
     28811     28812     28812     28810     28814     28813     28814     28815
     28815     28813     28817     28816     28817     28818     28818     28816
     28820     28819     28820     28821     28821     28819     28823     28822
     28823     28824     28824     28822     28826     28825     28826     28827
     28827     28825     28829     28828     28829     28830     28830     28828
     28832     28831     28832     28833     28833     28831     28835     28834
     28835     28836     28836     28834     28838     28837     28838     28839
     28839     28837     28841     28840     28841     28842     28842     28840
     28844     28843     28844     28845     28845     28843     28847     28846
     28847     28848     28848     28846     28850     28849     28850     28851
     28851     28849     28853     28852     28853     28854     28854     28852
     28856     28855     28856     28857     28857     28855     28859     28858
     28859     28860     28860     28858     28862     28861     28862     28863
     28863     28861     28865     28864     28865     28866     28866     28864
     28868     28867     28868     28869     28869     28867     28871     28870
     28871     28872     28872     28870     28874     28873     28874     28875
     28875     28873     28877     28876     28877     28878     28878     28876
     28880     28879     28880     28881     28881     28879     28883     28882
     28883     28884     28884     28882     28886     28885     28886     28887
     28887     28885     28889     28888     28889     28890     28890     28888
     28892     28891     28892     28893     28893     28891     28895     28894
     28895     28896     28896     28894     28898     28897     28898     28899
     28899     28897     28901     28900     28901     28902     28902     28900
     28904     28903     28904     28905     28905     28903     28907     28906
     28907     28908     28908     28906     28910     28909     28910     28911
     28911     28909     28913     28912     28913     28914     28914     28912
     28916     28915     28916     28917     28917     28915     28919     28918
     28919     28920     28920     28918     28922     28921     28922     28923
     28923     28921     28925     28924     28925     28926     28926     28924
     28928     28927     28928     28929     28929     28927     28931     28930
     28931     28932     28932     28930     28934     28933     28934     28935
     28935     28933     28937     28936     28937     28938     28938     28936
     28940     28939     28940     28941     28941     28939     28943     28942
     28943     28944     28944     28942     28946     28945     28946     28947
     28947     28945     28949     28948     28949     28950     28950     28948
     28952     28951     28952     28953     28953     28951     28955     28954
     28955     28956     28956     28954     28958     28957     28958     28959
     28959     28957     28961     28960     28961     28962     28962     28960
     28964     28963     28964     28965     28965     28963     28967     28966
     28967     28968     28968     28966     28970     28969     28970     28971
     28971     28969     28973     28972     28973     28974     28974     28972
     28976     28975     28976     28977     28977     28975     28979     28978
     28979     28980     28980     28978     28982     28981     28982     28983
     28983     28981     28985     28984     28985     28986     28986     28984
     28988     28987     28988     28989     28989     28987     28991     28990
     28991     28992     28992     28990     28994     28993     28994     28995
     28995     28993     28997     28996     28997     28998     28998     28996
     29000     28999     29000     29001     29001     28999     29003     29002
     29003     29004     29004     29002     29006     29005     29006     29007
     29007     29005     29009     29008     29009     29010     29010     29008
     29012     29011     29012     29013     29013     29011     29015     29014
     29015     29016     29016     29014     29018     29017     29018     29019
     29019     29017     29021     29020     29021     29022     29022     29020
     29024     29023     29024     29025     29025     29023     29027     29026
     29027     29028     29028     29026     29030     29029     29030     29031
     29031     29029     29033     29032     29033     29034     29034     29032
     29036     29035     29036     29037     29037     29035     29039     29038
     29039     29040     29040     29038     29042     29041     29042     29043
     29043     29041     29045     29044     29045     29046     29046     29044
     29048     29047     29048     29049     29049     29047     29051     29050
     29051     29052     29052     29050     29054     29053     29054     29055
     29055     29053     29057     29056     29057     29058     29058     29056
     29060     29059     29060     29061     29061     29059     29063     29062
     29063     29064     29064     29062     29066     29065     29066     29067
     29067     29065     29069     29068     29069     29070     29070     29068
     29072     29071     29072     29073     29073     29071     29075     29074
     29075     29076     29076     29074     29078     29077     29078     29079
     29079     29077     29081     29080     29081     29082     29082     29080
     29084     29083     29084     29085     29085     29083     29087     29086
     29087     29088     29088     29086     29090     29089     29090     29091
     29091     29089     29093     29092     29093     29094     29094     29092
     29096     29095     29096     29097     29097     29095     29099     29098
     29099     29100     29100     29098     29102     29101     29102     29103
     29103     29101     29105     29104     29105     29106     29106     29104
     29108     29107     29108     29109     29109     29107     29111     29110
     29111     29112     29112     29110     29114     29113     29114     29115
     29115     29113     29117     29116     29117     29118     29118     29116
     29120     29119     29120     29121     29121     29119     29123     29122
     29123     29124     29124     29122     29126     29125     29126     29127
     29127     29125     29129     29128     29129     29130     29130     29128
     29132     29131     29132     29133     29133     29131     29135     29134
     29135     29136     29136     29134     29138     29137     29138     29139
     29139     29137     29141     29140     29141     29142     29142     29140
     29144     29143     29144     29145     29145     29143     29147     29146
     29147     29148     29148     29146     29150     29149     29150     29151
     29151     29149     29153     29152     29153     29154     29154     29152
     29156     29155     29156     29157     29157     29155     29159     29158
     29159     29160     29160     29158     29162     29161     29162     29163
     29163     29161     29165     29164     29165     29166     29166     29164
     29168     29167     29168     29169     29169     29167     29171     29170
     29171     29172     29172     29170     29174     29173     29174     29175
     29175     29173     29177     29176     29177     29178     29178     29176
     29180     29179     29180     29181     29181     29179     29183     29182
     29183     29184     29184     29182     29186     29185     29186     29187
     29187     29185     29189     29188     29189     29190     29190     29188
     29192     29191     29192     29193     29193     29191     29195     29194
     29195     29196     29196     29194     29198     29197     29198     29199
     29199     29197     29201     29200     29201     29202     29202     29200
     29204     29203     29204     29205     29205     29203     29207     29206
     29207     29208     29208     29206     29210     29209     29210     29211
     29211     29209     29213     29212     29213     29214     29214     29212
     29216     29215     29216     29217     29217     29215     29219     29218
     29219     29220     29220     29218     29222     29221     29222     29223
     29223     29221     29225     29224     29225     29226     29226     29224
     29228     29227     29228     29229     29229     29227     29231     29230
     29231     29232     29232     29230     29234     29233     29234     29235
     29235     29233     29237     29236     29237     29238     29238     29236
     29240     29239     29240     29241     29241     29239     29243     29242
     29243     29244     29244     29242     29246     29245     29246     29247
     29247     29245     29249     29248     29249     29250     29250     29248
     29252     29251     29252     29253     29253     29251     29255     29254
     29255     29256     29256     29254     29258     29257     29258     29259
     29259     29257     29261     29260     29261     29262     29262     29260
     29264     29263     29264     29265     29265     29263     29267     29266
     29267     29268     29268     29266     29270     29269     29270     29271
     29271     29269     29273     29272     29273     29274     29274     29272
     29276     29275     29276     29277     29277     29275     29279     29278
     29279     29280     29280     29278     29282     29281     29282     29283
     29283     29281     29285     29284     29285     29286     29286     29284
     29288     29287     29288     29289     29289     29287     29291     29290
     29291     29292     29292     29290     29294     29293     29294     29295
     29295     29293     29297     29296     29297     29298     29298     29296
     29300     29299     29300     29301     29301     29299     29303     29302
     29303     29304     29304     29302     29306     29305     29306     29307
     29307     29305     29309     29308     29309     29310     29310     29308
     29312     29311     29312     29313     29313     29311     29315     29314
     29315     29316     29316     29314     29318     29317     29318     29319
     29319     29317     29321     29320     29321     29322     29322     29320
     29324     29323     29324     29325     29325     29323     29327     29326
     29327     29328     29328     29326     29330     29329     29330     29331
     29331     29329     29333     29332     29333     29334     29334     29332
     29336     29335     29336     29337     29337     29335     29339     29338
     29339     29340     29340     29338     29342     29341     29342     29343
     29343     29341     29345     29344     29345     29346     29346     29344
     29348     29347     29348     29349     29349     29347     29351     29350
     29351     29352     29352     29350     29354     29353     29354     29355
     29355     29353     29357     29356     29357     29358     29358     29356
     29360     29359     29360     29361     29361     29359     29363     29362
     29363     29364     29364     29362     29366     29365     29366     29367
     29367     29365     29369     29368     29369     29370     29370     29368
     29372     29371     29372     29373     29373     29371     29375     29374
     29375     29376     29376     29374     29378     29377     29378     29379
     29379     29377     29381     29380     29381     29382     29382     29380
     29384     29383     29384     29385     29385     29383     29387     29386
     29387     29388     29388     29386     29390     29389     29390     29391
     29391     29389     29393     29392     29393     29394     29394     29392
     29396     29395     29396     29397     29397     29395     29399     29398
     29399     29400     29400     29398     29402     29401     29402     29403
     29403     29401     29405     29404     29405     29406     29406     29404
     29408     29407     29408     29409     29409     29407     29411     29410
     29411     29412     29412     29410     29414     29413     29414     29415
     29415     29413     29417     29416     29417     29418     29418     29416
     29420     29419     29420     29421     29421     29419     29423     29422
     29423     29424     29424     29422     29426     29425     29426     29427
     29427     29425     29429     29428     29429     29430     29430     29428
     29432     29431     29432     29433     29433     29431     29435     29434
     29435     29436     29436     29434     29438     29437     29438     29439
     29439     29437     29441     29440     29441     29442     29442     29440
     29444     29443     29444     29445     29445     29443     29447     29446
     29447     29448     29448     29446     29450     29449     29450     29451
     29451     29449     29453     29452     29453     29454     29454     29452
     29456     29455     29456     29457     29457     29455     29459     29458
     29459     29460     29460     29458     29462     29461     29462     29463
     29463     29461     29465     29464     29465     29466     29466     29464
     29468     29467     29468     29469     29469     29467

     22729 !NTHETA: angles
         2         1         3         2         1         4         2         1         5
         3         1         4         3         1         5         4         1         5
         1         5         6         1         5         7         1         5        23
         6         5         7         6         5        23         7         5        23
         5         7         8         5         7         9         5         7        10
         8         7         9         8         7        10         9         7        10
         7        10        11         7        10        12         7        10        13
        11        10        12        11        10        13        12        10        13
        10        13        14        10        13        15        10        13        16
        14        13        15        14        13        16        15        13        16
        13        16        17        13        16        18        13        16        19
        17        16        18        17        16        19        18        16        19
        16        19        20        16        19        21        16        19        22
        20        19        21        20        19        22        21        19        22
        25        23         5        25        23        24         5        23        24
        23        25        26        23        25        27        26        25        27
        25        27        28        25        27        29        25        27        30
        28        27        29        28        27        30        29        27        30
        32        30        27        32        30        31        27        30        31
        30        32        33        30        32        42        33        32        42
        32        33        34        32        33        35        32        33        36
        34        33        35        34        33        36        35        33        36
        33        36        37        33        36        38        33        36        39
        37        36        38        37        36        39        38        36        39
        36        39        40        36        39        41        36        39        42
        40        39        41        40        39        42        41        39        42
        32        42        39        32        42        43        32        42        44
        39        42        43        39        42        44        43        42        44
        46        44        42        46        44        45        42        44        45
        44        46        47        44        46        56        47        46        56
        46        47        48        46        47        49        46        47        50
        48        47        49        48        47        50        49        47        50
        47        50        51        47        50        52        47        50        53
        51        50        52        51        50        53        52        50        53
        50        53        54        50        53        55        50        53        56
        54        53        55        54        53        56        55        53        56
        46        56        53        46        56        57        46        56        58
        53        56        57        53        56        58        57        56        58
        60        58        56        60        58        59        56        58        59
        58        60        61        58        60        62        61        60        62
        60        62        63        60        62        64        60        62        82
        63        62        64        63        62        82        64        62        82
        62        64        65        62        64        66        62        64        67
        65        64        66        65        64        67        66        64        67
        64        67        68        64        67        69        64        67        70
        68        67        69        68        67        70        69        67        70
        67        70        71        67        70        72        67        70        73
        71        70        72        71        70        73        72        70        73
        70        73        74        70        73        75        74        73        75
        73        75        76        73        75        79        76        75        79
        75        76        77        75        76        78        77        76        78
        75        79        80        75        79        81        80        79        81
        84        82        62        84        82        83        62        82        83
        82        84        85        82        84        86        85        84        86
        84        86        87        84        86        88        84        86       106
        87        86        88        87        86       106        88        86       106
        86        88        89        86        88        90        86        88        91
        89        88        90        89        88        91        90        88        91
        88        91        92        88        91        93        88        91        94
        92        91        93        92        91        94        93        91        94
        91        94        95        91        94        96        91        94        97
        95        94        96        95        94        97        96        94        97
        94        97        98        94        97        99        98        97        99
        97        99       100        97        99       103       100        99       103
        99       100       101        99       100       102       101       100       102
        99       103       104        99       103       105       104       103       105
        86       106       107        86       106       108       107       106       108
       110       109       111       110       109       112       110       109       113
       111       109       112       111       109       113       112       109       113
       109       113       114       109       113       115       109       113       116
       114       113       115       114       113       116       115       113       116
       113       116       117       113       116       118       113       116       119
       117       116       118       117       116       119       118       116       119
       116       119       120       116       119       121       116       119       122
       120       119       121       120       119       122       121       119       122
       119       122       123       119       122       124       119       122       125
       123       122       124       123       122       125       124       122       125
       122       125       126       122       125       127       122       125       128
       126       125       127       126       125       128       127       125       128
       125       128       129       125       128       130       125       128       131
       129       128       130       129       128       131       130       128       131
       128       131       132       128       131       133       128       131       134
       132       131       133       132       131       134       133       131       134
       131       134       135       131       134       136       131       134       137
       135       134       136       135       134       137       136       134       137
       134       137       138       134       137       139       134       137       140
       138       137       139       138       137       140       139       137       140
       137       140       141       137       140       142       137       140       143
       141       140       142       141       140       143       142       140       143
       140       143       144       140       143       145       140       143       146
       144       143       145       144       143       146       145       143       146
       143       146       147       143       146       148       143       146       149
       147       146       148       147       146       149       148       146       149
       146       149       150       146       149       151       146       149       152
       150       149       151       150       149       152       151       149       152
       155       152       149       155       152       153       155       152       154
       149       152       153       149       152       154       153       152       154
       152       155       156       152       155       157       156       155       157
       155       157       158       157       158       159       157       158       160
       157       158       161       159       158       160       159       158       161
       160       158       161       158       161       162       158       161       163
       158       161       190       162       161       163       162       161       190
       163       161       190       161       163       164       161       163       165
       161       163       166       164       163       165       164       163       166
       165       163       166       163       166       167       166       167       168
       166       167       188       166       167       189       168       167       188
       168       167       189       188       167       189       167       168       169
       168       169       170       168       169       171       168       169       172
       170       169       171       170       169       172       171       169       172
       169       172       173       169       172       174       169       172       175
       173       172       174       173       172       175       174       172       175
       172       175       176       172       175       180       172       175       184
       176       175       180       176       175       184       180       175       184
       175       176       177       175       176       178       175       176       179
       177       176       178       177       176       179       178       176       179
       175       180       181       175       180       182       175       180       183
       181       180       182       181       180       183       182       180       183
       175       184       185       175       184       186       175       184       187
       185       184       186       185       184       187       186       184       187
       161       190       191       193       191       190       193       191       192
       190       191       192       191       193       194       191       193       195
       191       193       196       194       193       195       194       193       196
       195       193       196       193       196       197       193       196       198
       193       196       199       197       196       198       197       196       199
       198       196       199       196       199       200       196       199       201
       196       199       202       200       199       201       200       199       202
       201       199       202       199       202       203       199       202       204
       199       202       205       203       202       204       203       202       205
       204       202       205       202       205       206       202       205       207
       202       205       208       206       205       207       206       205       208
       207       205       208       205       208       209       205       208       210
       205       208       211       209       208       210       209       208       211
       210       208       211       208       211       212       208       211       213
       208       211       214       212       211       213       212       211       214
       213       211       214       211       214       215       211       214       216
       215       214       216       214       216       217       214       216       218
       217       216       218       216       218       219       216       218       220
       216       218       221       219       218       220       219       218       221
       220       218       221       218       221       222       218       221       223
       218       221       224       222       221       223       222       221       224
       223       221       224       221       224       225       221       224       226
       221       224       227       225       224       226       225       224       227
       226       224       227       224       227       228       224       227       229
       224       227       230       228       227       229       228       227       230
       229       227       230       227       230       231       227       230       232
       227       230       233       231       230       232       231       230       233
       232       230       233       230       233       234       230       233       235
       230       233       236       234       233       235       234       233       236
       235       233       236       233       236       237       233       236       238
       233       236       239       237       236       238       237       236       239
       238       236       239       236       239       240       236       239       241
       236       239       242       240       239       241       240       239       242
       241       239       242       244       243       245       244       243       246
       244       243       247       245       243       246       245       243       247
       246       243       247       243       247       248       243       247       249
       243       247       250       248       247       249       248       247       250
       249       247       250       247       250       251       247       250       252
       247       250       253       251       250       252       251       250       253
       252       250       253       250       253       254       250       253       255
       250       253       256       254       253       255       254       253       256
       255       253       256       253       256       257       253       256       258
       253       256       259       257       256       258       257       256       259
       258       256       259       256       259       260       256       259       261
       256       259       262       260       259       261       260       259       262
       261       259       262       259       262       263       259       262       264
       259       262       265       263       262       264       263       262       265
       264       262       265       262       265       266       262       265       267
       262       265       268       266       265       267       266       265       268
       267       265       268       265       268       269       265       268       270
       265       268       271       269       268       270       269       268       271
       270       268       271       268       271       272       268       271       273
       268       271       274       272       271       273       272       271       274
       273       271       274       271       274       275       271       274       276
       271       274       277       275       274       276       275       274       277
       276       274       277       274       277       278       274       277       279
       274       277       280       278       277       279       278       277       280
       279       277       280       277       280       281       277       280       282
       277       280       283       281       280       282       281       280       283
       282       280       283       280       283       284       280       283       285
       280       283       286       284       283       285       284       283       286
       285       283       286       289       286       283       289       286       287
       289       286       288       283       286       287       283       286       288
       287       286       288       286       289       290       286       289       291
       290       289       291       289       291       292       291       292       293
       291       292       294       291       292       295       293       292       294
       293       292       295       294       292       295       292       295       296
       292       295       297       292       295       324       296       295       297
       296       295       324       297       295       324       295       297       298
       295       297       299       295       297       300       298       297       299
       298       297       300       299       297       300       297       300       301
       300       301       302       300       301       322       300       301       323
       302       301       322       302       301       323       322       301       323
       301       302       303       302       303       304       302       303       305
       302       303       306       304       303       305       304       303       306
       305       303       306       303       306       307       303       306       308
       303       306       309       307       306       308       307       306       309
       308       306       309       306       309       310       306       309       314
       306       309       318       310       309       314       310       309       318
       314       309       318       309       310       311       309       310       312
       309       310       313       311       310       312       311       310       313
       312       310       313       309       314       315       309       314       316
       309       314       317       315       314       316       315       314       317
       316       314       317       309       318       319       309       318       320
       309       318       321       319       318       320       319       318       321
       320       318       321       295       324       325       327       325       324
       327       325       326       324       325       326       325       327       328
       325       327       329       325       327       330       328       327       329
       328       327       330       329       327       330       327       330       331
       327       330       332       327       330       333       331       330       332
       331       330       333       332       330       333       330       333       334
       330       333       335       330       333       336       334       333       335
       334       333       336       335       333       336       333       336       337
       333       336       338       333       336       339       337       336       338
       337       336       339       338       336       339       336       339       340
       336       339       341       336       339       342       340       339       341
       340       339       342       341       339       342       339       342       343
       339       342       344       339       342       345       343       342       344
       343       342       345       344       342       345       342       345       346
       342       345       347       342       345       348       346       345       347
       346       345       348       347       345       348       345       348       349
       345       348       350       349       348       350       348       350       351
       348       350       352       351       350       352       350       352       353
       350       352       354       350       352       355       353       352       354
       353       352       355       354       352       355       352       355       356
       352       355       357       352       355       358       356       355       357
       356       355       358       357       355       358       355       358       359
       355       358       360       355       358       361       359       358       360
       359       358       361       360       358       361       358       361       362
       358       361       363       358       361       364       362       361       363
       362       361       364       363       361       364       361       364       365
       361       364       366       361       364       367       365       364       366
       365       364       367       366       364       367       364       367       368
       364       367       369       364       367       370       368       367       369
       368       367       370       369       367       370       367       370       371
       367       370       372       367       370       373       371       370       372
       371       370       373       372       370       373       370       373       374
       370       373       375       370       373       376       374       373       375
       374       373       376       375       373       376       378       377       379
       378       377       380       378       377       381       379       377       380
       379       377       381       380       377       381       377       381       382
       377       381       383       377       381       384       382       381       383
       382       381       384       383       381       384       381       384       385
       381       384       386       381       384       387       385       384       386
       385       384       387       386       384       387       384       387       388
       384       387       389       384       387       390       388       387       389
       388       387       390       389       387       390       387       390       391
       387       390       392       387       390       393       391       390       392
       391       390       393       392       390       393       390       393       394
       390       393       395       390       393       396       394       393       395
       394       393       396       395       393       396       393       396       397
       393       396       398       393       396       399       397       396       398
       397       396       399       398       396       399       396       399       400
       396       399       401       396       399       402       400       399       401
       400       399       402       401       399       402       399       402       403
       399       402       404       399       402       405       403       402       404
       403       402       405       404       402       405       402       405       406
       402       405       407       402       405       408       406       405       407
       406       405       408       407       405       408       405       408       409
       405       408       410       405       408       411       409       408       410
       409       408       411       410       408       411       408       411       412
       408       411       413       408       411       414       412       411       413
       412       411       414       413       411       414       411       414       415
       411       414       416       411       414       417       415       414       416
       415       414       417       416       414       417       414       417       418
       414       417       419       414       417       420       418       417       419
       418       417       420       419       417       420       423       420       417
       423       420       421       423       420       422       417       420       421
       417       420       422       421       420       422       420       423       424
       420       423       425       424       423       425       423       425       426
       425       426       427       425       426       428       425       426       429
       427       426       428       427       426       429       428       426       429
       426       429       430       426       429       431       426       429       458
       430       429       431       430       429       458       431       429       458
       429       431       432       429       431       433       429       431       434
       432       431       433       432       431       434       433       431       434
       431       434       435       434       435       436       434       435       456
       434       435       457       436       435       456       436       435       457
       456       435       457       435       436       437       436       437       438
       436       437       439       436       437       440       438       437       439
       438       437       440       439       437       440       437       440       441
       437       440       442       437       440       443       441       440       442
       441       440       443       442       440       443       440       443       444
       440       443       448       440       443       452       444       443       448
       444       443       452       448       443       452       443       444       445
       443       444       446       443       444       447       445       444       446
       445       444       447       446       444       447       443       448       449
       443       448       450       443       448       451       449       448       450
       449       448       451       450       448       451       443       452       453
       443       452       454       443       452       455       453       452       454
       453       452       455       454       452       455       429       458       459
       461       459       458       461       459       460       458       459       460
       459       461       462       459       461       463       459       461       464
       462       461       463       462       461       464       463       461       464
       461       464       465       461       464       466       461       464       467
       465       464       466       465       464       467       466       464       467
       464       467       468       464       467       469       464       467       470
       468       467       469       468       467       470       469       467       470
       467       470       471       467       470       472       467       470       473
       471       470       472       471       470       473       472       470       473
       470       473       474       470       473       475       470       473       476
       474       473       475       474       473       476       475       473       476
       473       476       477       473       476       478       473       476       479
       477       476       478       477       476       479       478       476       479
       476       479       480       476       479       481       476       479       482
       480       479       481       480       479       482       481       479       482
       479       482       483       479       482       484       483       482       484
       482       484       485       482       484       486       485       484       486
       484       486       487       484       486       488       484       486       489
       487       486       488       487       486       489       488       486       489
       486       489       490       486       489       491       486       489       492
       490       489       491       490       489       492       491       489       492
       489       492       493       489       492       494       489       492       495
       493       492       494       493       492       495       494       492       495
       492       495       496       492       495       497       492       495       498
       496       495       497       496       495       498       497       495       498
       495       498       499       495       498       500       495       498       501
       499       498       500       499       498       501       500       498       501
       498       501       502       498       501       503       498       501       504
       502       501       503       502       501       504       503       501       504
       501       504       505       501       504       506       501       504       507
       505       504       506       505       504       507       506       504       507
       504       507       508       504       507       509       504       507       510
       508       507       509       508       507       510       509       507       510
       512       511       513       512       511       514       512       511       515
       513       511       514       513       511       515       514       511       515
       511       515       516       511       515       517       511       515       518
       516       515       517       516       515       518       517       515       518
       515       518       519       515       518       520       515       518       521
       519       518       520       519       518       521       520       518       521
       518       521       522       518       521       523       518       521       524
       522       521       523       522       521       524       523       521       524
       521       524       525       521       524       526       521       524       527
       525       524       526       525       524       527       526       524       527
       524       527       528       524       527       529       524       527       530
       528       527       529       528       527       530       529       527       530
       527       530       531       527       530       532       527       530       533
       531       530       532       531       530       533       532       530       533
       530       533       534       530       533       535       530       533       536
       534       533       535       534       533       536       535       533       536
       533       536       537       533       536       538       533       536       539
       537       536       538       537       536       539       538       536       539
       536       539       540       536       539       541       536       539       542
       540       539       541       540       539       542       541       539       542
       539       542       543       539       542       544       539       542       545
       543       542       544       543       542       545       544       542       545
       542       545       546       542       545       547       542       545       548
       546       545       547       546       545       548       547       545       548
       545       548       549       545       548       550       545       548       551
       549       548       550       549       548       551       550       548       551
       548       551       552       548       551       553       548       551       554
       552       551       553       552       551       554       553       551       554
       557       554       551       557       554       555       557       554       556
       551       554       555       551       554       556       555       554       556
       554       557       558       554       557       559       558       557       559
       557       559       560       559       560       561       559       560       562
       559       560       563       561       560       562       561       560       563
       562       560       563       560       563       564       560       563       565
       560       563       592       564       563       565       564       563       592
       565       563       592       563       565       566       563       565       567
       563       565       568       566       565       567       566       565       568
       567       565       568       565       568       569       568       569       570
       568       569       590       568       569       591       570       569       590
       570       569       591       590       569       591       569       570       571
       570       571       572       570       571       573       570       571       574
       572       571       573       572       571       574       573       571       574
       571       574       575       571       574       576       571       574       577
       575       574       576       575       574       577       576       574       577
       574       577       578       574       577       582       574       577       586
       578       577       582       578       577       586       582       577       586
       577       578       579       577       578       580       577       578       581
       579       578       580       579       578       581       580       578       581
       577       582       583       577       582       584       577       582       585
       583       582       584       583       582       585       584       582       585
       577       586       587       577       586       588       577       586       589
       587       586       588       587       586       589       588       586       589
       563       592       593       595       593       592       595       593       594
       592       593       594       593       595       596       593       595       597
       593       595       598       596       595       597       596       595       598
       597       595       598       595       598       599       595       598       600
       595       598       601       599       598       600       599       598       601
       600       598       601       598       601       602       598       601       603
       598       601       604       602       601       603       602       601       604
       603       601       604       601       604       605       601       604       606
       601       604       607       605       604       606       605       604       607
       606       604       607       604       607       608       604       607       609
       604       607       610       608       607       609       608       607       610
       609       607       610       607       610       611       607       610       612
       607       610       613       611       610       612       611       610       613
       612       610       613       610       613       614       610       613       615
       610       613       616       614       613       615       614       613       616
       615       613       616       613       616       617       613       616       618
       617       616       618       616       618       619       616       618       620
       619       618       620       618       620       621       618       620       622
       618       620       623       621       620       622       621       620       623
       622       620       623       620       623       624       620       623       625
       620       623       626       624       623       625       624       623       626
       625       623       626       623       626       627       623       626       628
       623       626       629       627       626       628       627       626       629
       628       626       629       626       629       630       626       629       631
       626       629       632       630       629       631       630       629       632
       631       629       632       629       632       633       629       632       634
       629       632       635       633       632       634       633       632       635
       634       632       635       632       635       636       632       635       637
       632       635       638       636       635       637       636       635       638
       637       635       638       635       638       639       635       638       640
       635       638       641       639       638       640       639       638       641
       640       638       641       638       641       642       638       641       643
       638       641       644       642       641       643       642       641       644
       643       641       644       646       645       647       646       645       648
       646       645       649       647       645       648       647       645       649
       648       645       649       645       649       650       645       649       651
       645       649       652       650       649       651       650       649       652
       651       649       652       649       652       653       649       652       654
       649       652       655       653       652       654       653       652       655
       654       652       655       652       655       656       652       655       657
       652       655       658       656       655       657       656       655       658
       657       655       658       655       658       659       655       658       660
       655       658       661       659       658       660       659       658       661
       660       658       661       658       661       662       658       661       663
       658       661       664       662       661       663       662       661       664
       663       661       664       661       664       665       661       664       666
       661       664       667       665       664       666       665       664       667
       666       664       667       664       667       668       664       667       669
       664       667       670       668       667       669       668       667       670
       669       667       670       667       670       671       667       670       672
       667       670       673       671       670       672       671       670       673
       672       670       673       670       673       674       670       673       675
       670       673       676       674       673       675       674       673       676
       675       673       676       673       676       677       673       676       678
       673       676       679       677       676       678       677       676       679
       678       676       679       676       679       680       676       679       681
       676       679       682       680       679       681       680       679       682
       681       679       682       679       682       683       679       682       684
       679       682       685       683       682       684       683       682       685
       684       682       685       682       685       686       682       685       687
       682       685       688       686       685       687       686       685       688
       687       685       688       691       688       685       691       688       689
       691       688       690       685       688       689       685       688       690
       689       688       690       688       691       692       688       691       693
       692       691       693       691       693       694       693       694       695
       693       694       696       693       694       697       695       694       696
       695       694       697       696       694       697       694       697       698
       694       697       699       694       697       726       698       697       699
       698       697       726       699       697       726       697       699       700
       697       699       701       697       699       702       700       699       701
       700       699       702       701       699       702       699       702       703
       702       703       704       702       703       724       702       703       725
       704       703       724       704       703       725       724       703       725
       703       704       705       704       705       706       704       705       707
       704       705       708       706       705       707       706       705       708
       707       705       708       705       708       709       705       708       710
       705       708       711       709       708       710       709       708       711
       710       708       711       708       711       712       708       711       716
       708       711       720       712       711       716       712       711       720
       716       711       720       711       712       713       711       712       714
       711       712       715       713       712       714       713       712       715
       714       712       715       711       716       717       711       716       718
       711       716       719       717       716       718       717       716       719
       718       716       719       711       720       721       711       720       722
       711       720       723       721       720       722       721       720       723
       722       720       723       697       726       727       729       727       726
       729       727       728       726       727       728       727       729       730
       727       729       731       727       729       732       730       729       731
       730       729       732       731       729       732       729       732       733
       729       732       734       729       732       735       733       732       734
       733       732       735       734       732       735       732       735       736
       732       735       737       732       735       738       736       735       737
       736       735       738       737       735       738       735       738       739
       735       738       740       735       738       741       739       738       740
       739       738       741       740       738       741       738       741       742
       738       741       743       738       741       744       742       741       743
       742       741       744       743       741       744       741       744       745
       741       744       746       741       744       747       745       744       746
       745       744       747       746       744       747       744       747       748
       744       747       749       744       747       750       748       747       749
       748       747       750       749       747       750       747       750       751
       747       750       752       751       750       752       750       752       753
       750       752       754       753       752       754       752       754       755
       752       754       756       752       754       757       755       754       756
       755       754       757       756       754       757       754       757       758
       754       757       759       754       757       760       758       757       759
       758       757       760       759       757       760       757       760       761
       757       760       762       757       760       763       761       760       762
       761       760       763       762       760       763       760       763       764
       760       763       765       760       763       766       764       763       765
       764       763       766       765       763       766       763       766       767
       763       766       768       763       766       769       767       766       768
       767       766       769       768       766       769       766       769       770
       766       769       771       766       769       772       770       769       771
       770       769       772       771       769       772       769       772       773
       769       772       774       769       772       775       773       772       774
       773       772       775       774       772       775       772       775       776
       772       775       777       772       775       778       776       775       777
       776       775       778       777       775       778       780       779       781
       780       779       782       780       779       783       781       779       782
       781       779       783       782       779       783       779       783       784
       779       783       785       779       783       786       784       783       785
       784       783       786       785       783       786       783       786       787
       783       786       788       783       786       789       787       786       788
       787       786       789       788       786       789       786       789       790
       786       789       791       786       789       792       790       789       791
       790       789       792       791       789       792       789       792       793
       789       792       794       789       792       795       793       792       794
       793       792       795       794       792       795       792       795       796
       792       795       797       792       795       798       796       795       797
       796       795       798       797       795       798       795       798       799
       795       798       800       795       798       801       799       798       800
       799       798       801       800       798       801       798       801       802
       798       801       803       798       801       804       802       801       803
       802       801       804       803       801       804       801       804       805
       801       804       806       801       804       807       805       804       806
       805       804       807       806       804       807       804       807       808
       804       807       809       804       807       810       808       807       809
       808       807       810       809       807       810       807       810       811
       807       810       812       807       810       813       811       810       812
       811       810       813       812       810       813       810       813       814
       810       813       815       810       813       816       814       813       815
       814       813       816       815       813       816       813       816       817
       813       816       818       813       816       819       817       816       818
       817       816       819       818       816       819       816       819       820
       816       819       821       816       819       822       820       819       821
       820       819       822       821       819       822       825       822       819
       825       822       823       825       822       824       819       822       823
       819       822       824       823       822       824       822       825       826
       822       825       827       826       825       827       825       827       828
       827       828       829       827       828       830       827       828       831
       829       828       830       829       828       831       830       828       831
       828       831       832       828       831       833       828       831       860
       832       831       833       832       831       860       833       831       860
       831       833       834       831       833       835       831       833       836
       834       833       835       834       833       836       835       833       836
       833       836       837       836       837       838       836       837       858
       836       837       859       838       837       858       838       837       859
       858       837       859       837       838       839       838       839       840
       838       839       841       838       839       842       840       839       841
       840       839       842       841       839       842       839       842       843
       839       842       844       839       842       845       843       842       844
       843       842       845       844       842       845       842       845       846
       842       845       850       842       845       854       846       845       850
       846       845       854       850       845       854       845       846       847
       845       846       848       845       846       849       847       846       848
       847       846       849       848       846       849       845       850       851
       845       850       852       845       850       853       851       850       852
       851       850       853       852       850       853       845       854       855
       845       854       856       845       854       857       855       854       856
       855       854       857       856       854       857       831       860       861
       863       861       860       863       861       862       860       861       862
       861       863       864       861       863       865       861       863       866
       864       863       865       864       863       866       865       863       866
       863       866       867       863       866       868       863       866       869
       867       866       868       867       866       869       868       866       869
       866       869       870       866       869       871       866       869       872
       870       869       871       870       869       872       871       869       872
       869       872       873       869       872       874       869       872       875
       873       872       874       873       872       875       874       872       875
       872       875       876       872       875       877       872       875       878
       876       875       877       876       875       878       877       875       878
       875       878       879       875       878       880       875       878       881
       879       878       880       879       878       881       880       878       881
       878       881       882       878       881       883       878       881       884
       882       881       883       882       881       884       883       881       884
       881       884       885       881       884       886       885       884       886
       884       886       887       884       886       888       887       886       888
       886       888       889       886       888       890       886       888       891
       889       888       890       889       888       891       890       888       891
       888       891       892       888       891       893       888       891       894
       892       891       893       892       891       894       893       891       894
       891       894       895       891       894       896       891       894       897
       895       894       896       895       894       897       896       894       897
       894       897       898       894       897       899       894       897       900
       898       897       899       898       897       900       899       897       900
       897       900       901       897       900       902       897       900       903
       901       900       902       901       900       903       902       900       903
       900       903       904       900       903       905       900       903       906
       904       903       905       904       903       906       905       903       906
       903       906       907       903       906       908       903       906       909
       907       906       908       907       906       909       908       906       909
       906       909       910       906       909       911       906       909       912
       910       909       911       910       909       912       911       909       912
       914       913       915       914       913       916       914       913       917
       915       913       916       915       913       917       916       913       917
       913       917       918       913       917       919       913       917       920
       918       917       919       918       917       920       919       917       920
       917       920       921       917       920       922       917       920       923
       921       920       922       921       920       923       922       920       923
       920       923       924       920       923       925       920       923       926
       924       923       925       924       923       926       925       923       926
       923       926       927       923       926       928       923       926       929
       927       926       928       927       926       929       928       926       929
       926       929       930       926       929       931       926       929       932
       930       929       931       930       929       932       931       929       932
       929       932       933       929       932       934       929       932       935
       933       932       934       933       932       935       934       932       935
       932       935       936       932       935       937       932       935       938
       936       935       937       936       935       938       937       935       938
       935       938       939       935       938       940       935       938       941
       939       938       940       939       938       941       940       938       941
       938       941       942       938       941       943       938       941       944
       942       941       943       942       941       944       943       941       944
       941       944       945       941       944       946       941       944       947
       945       944       946       945       944       947       946       944       947
       944       947       948       944       947       949       944       947       950
       948       947       949       948       947       950       949       947       950
       947       950       951       947       950       952       947       950       953
       951       950       952       951       950       953       952       950       953
       950       953       954       950       953       955       950       953       956
       954       953       955       954       953       956       955       953       956
       959       956       953       959       956       957       959       956       958
       953       956       957       953       956       958       957       956       958
       956       959       960       956       959       961       960       959       961
       959       961       962       961       962       963       961       962       964
       961       962       965       963       962       964       963       962       965
       964       962       965       962       965       966       962       965       967
       962       965       994       966       965       967       966       965       994
       967       965       994       965       967       968       965       967       969
       965       967       970       968       967       969       968       967       970
       969       967       970       967       970       971       970       971       972
       970       971       992       970       971       993       972       971       992
       972       971       993       992       971       993       971       972       973
       972       973       974       972       973       975       972       973       976
       974       973       975       974       973       976       975       973       976
       973       976       977       973       976       978       973       976       979
       977       976       978       977       976       979       978       976       979
       976       979       980       976       979       984       976       979       988
       980       979       984       980       979       988       984       979       988
       979       980       981       979       980       982       979       980       983
       981       980       982       981       980       983       982       980       983
       979       984       985       979       984       986       979       984       987
       985       984       986       985       984       987       986       984       987
       979       988       989       979       988       990       979       988       991
       989       988       990       989       988       991       990       988       991
       965       994       995       997       995       994       997       995       996
       994       995       996       995       997       998       995       997       999
       995       997      1000       998       997       999       998       997      1000
       999       997      1000       997      1000      1001       997      1000      1002
       997      1000      1003      1001      1000      1002      1001      1000      1003
      1002      1000      1003      1000      1003      1004      1000      1003      1005
      1000      1003      1006      1004      1003      1005      1004      1003      1006
      1005      1003      1006      1003      1006      1007      1003      1006      1008
      1003      1006      1009      1007      1006      1008      1007      1006      1009
      1008      1006      1009      1006      1009      1010      1006      1009      1011
      1006      1009      1012      1010      1009      1011      1010      1009      1012
      1011      1009      1012      1009      1012      1013      1009      1012      1014
      1009      1012      1015      1013      1012      1014      1013      1012      1015
      1014      1012      1015      1012      1015      1016      1012      1015      1017
      1012      1015      1018      1016      1015      1017      1016      1015      1018
      1017      1015      1018      1015      1018      1019      1015      1018      1020
      1019      1018      1020      1018      1020      1021      1018      1020      1022
      1021      1020      1022      1020      1022      1023      1020      1022      1024
      1020      1022      1025      1023      1022      1024      1023      1022      1025
      1024      1022      1025      1022      1025      1026      1022      1025      1027
      1022      1025      1028      1026      1025      1027      1026      1025      1028
      1027      1025      1028      1025      1028      1029      1025      1028      1030
      1025      1028      1031      1029      1028      1030      1029      1028      1031
      1030      1028      1031      1028      1031      1032      1028      1031      1033
      1028      1031      1034      1032      1031      1033      1032      1031      1034
      1033      1031      1034      1031      1034      1035      1031      1034      1036
      1031      1034      1037      1035      1034      1036      1035      1034      1037
      1036      1034      1037      1034      1037      1038      1034      1037      1039
      1034      1037      1040      1038      1037      1039      1038      1037      1040
      1039      1037      1040      1037      1040      1041      1037      1040      1042
      1037      1040      1043      1041      1040      1042      1041      1040      1043
      1042      1040      1043      1040      1043      1044      1040      1043      1045
      1040      1043      1046      1044      1043      1045      1044      1043      1046
      1045      1043      1046      1048      1047      1049      1048      1047      1050
      1048      1047      1051      1049      1047      1050      1049      1047      1051
      1050      1047      1051      1047      1051      1052      1047      1051      1053
      1047      1051      1054      1052      1051      1053      1052      1051      1054
      1053      1051      1054      1051      1054      1055      1051      1054      1056
      1051      1054      1057      1055      1054      1056      1055      1054      1057
      1056      1054      1057      1054      1057      1058      1054      1057      1059
      1054      1057      1060      1058      1057      1059      1058      1057      1060
      1059      1057      1060      1057      1060      1061      1057      1060      1062
      1057      1060      1063      1061      1060      1062      1061      1060      1063
      1062      1060      1063      1060      1063      1064      1060      1063      1065
      1060      1063      1066      1064      1063      1065      1064      1063      1066
      1065      1063      1066      1063      1066      1067      1063      1066      1068
      1063      1066      1069      1067      1066      1068      1067      1066      1069
      1068      1066      1069      1066      1069      1070      1066      1069      1071
      1066      1069      1072      1070      1069      1071      1070      1069      1072
      1071      1069      1072      1069      1072      1073      1069      1072      1074
      1069      1072      1075      1073      1072      1074      1073      1072      1075
      1074      1072      1075      1072      1075      1076      1072      1075      1077
      1072      1075      1078      1076      1075      1077      1076      1075      1078
      1077      1075      1078      1075      1078      1079      1075      1078      1080
      1075      1078      1081      1079      1078      1080      1079      1078      1081
      1080      1078      1081      1078      1081      1082      1078      1081      1083
      1078      1081      1084      1082      1081      1083      1082      1081      1084
      1083      1081      1084      1081      1084      1085      1081      1084      1086
      1081      1084      1087      1085      1084      1086      1085      1084      1087
      1086      1084      1087      1084      1087      1088      1084      1087      1089
      1084      1087      1090      1088      1087      1089      1088      1087      1090
      1089      1087      1090      1093      1090      1087      1093      1090      1091
      1093      1090      1092      1087      1090      1091      1087      1090      1092
      1091      1090      1092      1090      1093      1094      1090      1093      1095
      1094      1093      1095      1093      1095      1096      1095      1096      1097
      1095      1096      1098      1095      1096      1099      1097      1096      1098
      1097      1096      1099      1098      1096      1099      1096      1099      1100
      1096      1099      1101      1096      1099      1128      1100      1099      1101
      1100      1099      1128      1101      1099      1128      1099      1101      1102
      1099      1101      1103      1099      1101      1104      1102      1101      1103
      1102      1101      1104      1103      1101      1104      1101      1104      1105
      1104      1105      1106      1104      1105      1126      1104      1105      1127
      1106      1105      1126      1106      1105      1127      1126      1105      1127
      1105      1106      1107      1106      1107      1108      1106      1107      1109
      1106      1107      1110      1108      1107      1109      1108      1107      1110
      1109      1107      1110      1107      1110      1111      1107      1110      1112
      1107      1110      1113      1111      1110      1112      1111      1110      1113
      1112      1110      1113      1110      1113      1114      1110      1113      1118
      1110      1113      1122      1114      1113      1118      1114      1113      1122
      1118      1113      1122      1113      1114      1115      1113      1114      1116
      1113      1114      1117      1115      1114      1116      1115      1114      1117
      1116      1114      1117      1113      1118      1119      1113      1118      1120
      1113      1118      1121      1119      1118      1120      1119      1118      1121
      1120      1118      1121      1113      1122      1123      1113      1122      1124
      1113      1122      1125      1123      1122      1124      1123      1122      1125
      1124      1122      1125      1099      1128      1129      1131      1129      1128
      1131      1129      1130      1128      1129      1130      1129      1131      1132
      1129      1131      1133      1129      1131      1134      1132      1131      1133
      1132      1131      1134      1133      1131      1134      1131      1134      1135
      1131      1134      1136      1131      1134      1137      1135      1134      1136
      1135      1134      1137      1136      1134      1137      1134      1137      1138
      1134      1137      1139      1134      1137      1140      1138      1137      1139
      1138      1137      1140      1139      1137      1140      1137      1140      1141
      1137      1140      1142      1137      1140      1143      1141      1140      1142
      1141      1140      1143      1142      1140      1143      1140      1143      1144
      1140      1143      1145      1140      1143      1146      1144      1143      1145
      1144      1143      1146      1145      1143      1146      1143      1146      1147
      1143      1146      1148      1143      1146      1149      1147      1146      1148
      1147      1146      1149      1148      1146      1149      1146      1149      1150
      1146      1149      1151      1146      1149      1152      1150      1149      1151
      1150      1149      1152      1151      1149      1152      1149      1152      1153
      1149      1152      1154      1153      1152      1154      1152      1154      1155
      1152      1154      1156      1155      1154      1156      1154      1156      1157
      1154      1156      1158      1154      1156      1159      1157      1156      1158
      1157      1156      1159      1158      1156      1159      1156      1159      1160
      1156      1159      1161      1156      1159      1162      1160      1159      1161
      1160      1159      1162      1161      1159      1162      1159      1162      1163
      1159      1162      1164      1159      1162      1165      1163      1162      1164
      1163      1162      1165      1164      1162      1165      1162      1165      1166
      1162      1165      1167      1162      1165      1168      1166      1165      1167
      1166      1165      1168      1167      1165      1168      1165      1168      1169
      1165      1168      1170      1165      1168      1171      1169      1168      1170
      1169      1168      1171      1170      1168      1171      1168      1171      1172
      1168      1171      1173      1168      1171      1174      1172      1171      1173
      1172      1171      1174      1173      1171      1174      1171      1174      1175
      1171      1174      1176      1171      1174      1177      1175      1174      1176
      1175      1174      1177      1176      1174      1177      1174      1177      1178
      1174      1177      1179      1174      1177      1180      1178      1177      1179
      1178      1177      1180      1179      1177      1180      1182      1181      1183
      1182      1181      1184      1182      1181      1185      1183      1181      1184
      1183      1181      1185      1184      1181      1185      1181      1185      1186
      1181      1185      1187      1181      1185      1188      1186      1185      1187
      1186      1185      1188      1187      1185      1188      1185      1188      1189
      1185      1188      1190      1185      1188      1191      1189      1188      1190
      1189      1188      1191      1190      1188      1191      1188      1191      1192
      1188      1191      1193      1188      1191      1194      1192      1191      1193
      1192      1191      1194      1193      1191      1194      1191      1194      1195
      1191      1194      1196      1191      1194      1197      1195      1194      1196
      1195      1194      1197      1196      1194      1197      1194      1197      1198
      1194      1197      1199      1194      1197      1200      1198      1197      1199
      1198      1197      1200      1199      1197      1200      1197      1200      1201
      1197      1200      1202      1197      1200      1203      1201      1200      1202
      1201      1200      1203      1202      1200      1203      1200      1203      1204
      1200      1203      1205      1200      1203      1206      1204      1203      1205
      1204      1203      1206      1205      1203      1206      1203      1206      1207
      1203      1206      1208      1203      1206      1209      1207      1206      1208
      1207      1206      1209      1208      1206      1209      1206      1209      1210
      1206      1209      1211      1206      1209      1212      1210      1209      1211
      1210      1209      1212      1211      1209      1212      1209      1212      1213
      1209      1212      1214      1209      1212      1215      1213      1212      1214
      1213      1212      1215      1214      1212      1215      1212      1215      1216
      1212      1215      1217      1212      1215      1218      1216      1215      1217
      1216      1215      1218      1217      1215      1218      1215      1218      1219
      1215      1218      1220      1215      1218      1221      1219      1218      1220
      1219      1218      1221      1220      1218      1221      1218      1221      1222
      1218      1221      1223      1218      1221      1224      1222      1221      1223
      1222      1221      1224      1223      1221      1224      1227      1224      1221
      1227      1224      1225      1227      1224      1226      1221      1224      1225
      1221      1224      1226      1225      1224      1226      1224      1227      1228
      1224      1227      1229      1228      1227      1229      1227      1229      1230
      1229      1230      1231      1229      1230      1232      1229      1230      1233
      1231      1230      1232      1231      1230      1233      1232      1230      1233
      1230      1233      1234      1230      1233      1235      1230      1233      1262
      1234      1233      1235      1234      1233      1262      1235      1233      1262
      1233      1235      1236      1233      1235      1237      1233      1235      1238
      1236      1235      1237      1236      1235      1238      1237      1235      1238
      1235      1238      1239      1238      1239      1240      1238      1239      1260
      1238      1239      1261      1240      1239      1260      1240      1239      1261
      1260      1239      1261      1239      1240      1241      1240      1241      1242
      1240      1241      1243      1240      1241      1244      1242      1241      1243
      1242      1241      1244      1243      1241      1244      1241      1244      1245
      1241      1244      1246      1241      1244      1247      1245      1244      1246
      1245      1244      1247      1246      1244      1247      1244      1247      1248
      1244      1247      1252      1244      1247      1256      1248      1247      1252
      1248      1247      1256      1252      1247      1256      1247      1248      1249
      1247      1248      1250      1247      1248      1251      1249      1248      1250
      1249      1248      1251      1250      1248      1251      1247      1252      1253
      1247      1252      1254      1247      1252      1255      1253      1252      1254
      1253      1252      1255      1254      1252      1255      1247      1256      1257
      1247      1256      1258      1247      1256      1259      1257      1256      1258
      1257      1256      1259      1258      1256      1259      1233      1262      1263
      1265      1263      1262      1265      1263      1264      1262      1263      1264
      1263      1265      1266      1263      1265      1267      1263      1265      1268
      1266      1265      1267      1266      1265      1268      1267      1265      1268
      1265      1268      1269      1265      1268      1270      1265      1268      1271
      1269      1268      1270      1269      1268      1271      1270      1268      1271
      1268      1271      1272      1268      1271      1273      1268      1271      1274
      1272      1271      1273      1272      1271      1274      1273      1271      1274
      1271      1274      1275      1271      1274      1276      1271      1274      1277
      1275      1274      1276      1275      1274      1277      1276      1274      1277
      1274      1277      1278      1274      1277      1279      1274      1277      1280
      1278      1277      1279      1278      1277      1280      1279      1277      1280
      1277      1280      1281      1277      1280      1282      1277      1280      1283
      1281      1280      1282      1281      1280      1283      1282      1280      1283
      1280      1283      1284      1280      1283      1285      1280      1283      1286
      1284      1283      1285      1284      1283      1286      1285      1283      1286
      1283      1286      1287      1283      1286      1288      1287      1286      1288
      1286      1288      1289      1286      1288      1290      1289      1288      1290
      1288      1290      1291      1288      1290      1292      1288      1290      1293
      1291      1290      1292      1291      1290      1293      1292      1290      1293
      1290      1293      1294      1290      1293      1295      1290      1293      1296
      1294      1293      1295      1294      1293      1296      1295      1293      1296
      1293      1296      1297      1293      1296      1298      1293      1296      1299
      1297      1296      1298      1297      1296      1299      1298      1296      1299
      1296      1299      1300      1296      1299      1301      1296      1299      1302
      1300      1299      1301      1300      1299      1302      1301      1299      1302
      1299      1302      1303      1299      1302      1304      1299      1302      1305
      1303      1302      1304      1303      1302      1305      1304      1302      1305
      1302      1305      1306      1302      1305      1307      1302      1305      1308
      1306      1305      1307      1306      1305      1308      1307      1305      1308
      1305      1308      1309      1305      1308      1310      1305      1308      1311
      1309      1308      1310      1309      1308      1311      1310      1308      1311
      1308      1311      1312      1308      1311      1313      1308      1311      1314
      1312      1311      1313      1312      1311      1314      1313      1311      1314
      1316      1315      1317      1316      1315      1318      1316      1315      1319
      1317      1315      1318      1317      1315      1319      1318      1315      1319
      1315      1319      1320      1315      1319      1321      1315      1319      1322
      1320      1319      1321      1320      1319      1322      1321      1319      1322
      1319      1322      1323      1319      1322      1324      1319      1322      1325
      1323      1322      1324      1323      1322      1325      1324      1322      1325
      1322      1325      1326      1322      1325      1327      1322      1325      1328
      1326      1325      1327      1326      1325      1328      1327      1325      1328
      1325      1328      1329      1325      1328      1330      1325      1328      1331
      1329      1328      1330      1329      1328      1331      1330      1328      1331
      1328      1331      1332      1328      1331      1333      1328      1331      1334
      1332      1331      1333      1332      1331      1334      1333      1331      1334
      1331      1334      1335      1331      1334      1336      1331      1334      1337
      1335      1334      1336      1335      1334      1337      1336      1334      1337
      1334      1337      1338      1334      1337      1339      1334      1337      1340
      1338      1337      1339      1338      1337      1340      1339      1337      1340
      1337      1340      1341      1337      1340      1342      1337      1340      1343
      1341      1340      1342      1341      1340      1343      1342      1340      1343
      1340      1343      1344      1340      1343      1345      1340      1343      1346
      1344      1343      1345      1344      1343      1346      1345      1343      1346
      1343      1346      1347      1343      1346      1348      1343      1346      1349
      1347      1346      1348      1347      1346      1349      1348      1346      1349
      1346      1349      1350      1346      1349      1351      1346      1349      1352
      1350      1349      1351      1350      1349      1352      1351      1349      1352
      1349      1352      1353      1349      1352      1354      1349      1352      1355
      1353      1352      1354      1353      1352      1355      1354      1352      1355
      1352      1355      1356      1352      1355      1357      1352      1355      1358
      1356      1355      1357      1356      1355      1358      1357      1355      1358
      1361      1358      1355      1361      1358      1359      1361      1358      1360
      1355      1358      1359      1355      1358      1360      1359      1358      1360
      1358      1361      1362      1358      1361      1363      1362      1361      1363
      1361      1363      1364      1363      1364      1365      1363      1364      1366
      1363      1364      1367      1365      1364      1366      1365      1364      1367
      1366      1364      1367      1364      1367      1368      1364      1367      1369
      1364      1367      1396      1368      1367      1369      1368      1367      1396
      1369      1367      1396      1367      1369      1370      1367      1369      1371
      1367      1369      1372      1370      1369      1371      1370      1369      1372
      1371      1369      1372      1369      1372      1373      1372      1373      1374
      1372      1373      1394      1372      1373      1395      1374      1373      1394
      1374      1373      1395      1394      1373      1395      1373      1374      1375
      1374      1375      1376      1374      1375      1377      1374      1375      1378
      1376      1375      1377      1376      1375      1378      1377      1375      1378
      1375      1378      1379      1375      1378      1380      1375      1378      1381
      1379      1378      1380      1379      1378      1381      1380      1378      1381
      1378      1381      1382      1378      1381      1386      1378      1381      1390
      1382      1381      1386      1382      1381      1390      1386      1381      1390
      1381      1382      1383      1381      1382      1384      1381      1382      1385
      1383      1382      1384      1383      1382      1385      1384      1382      1385
      1381      1386      1387      1381      1386      1388      1381      1386      1389
      1387      1386      1388      1387      1386      1389      1388      1386      1389
      1381      1390      1391      1381      1390      1392      1381      1390      1393
      1391      1390      1392      1391      1390      1393      1392      1390      1393
      1367      1396      1397      1399      1397      1396      1399      1397      1398
      1396      1397      1398      1397      1399      1400      1397      1399      1401
      1397      1399      1402      1400      1399      1401      1400      1399      1402
      1401      1399      1402      1399      1402      1403      1399      1402      1404
      1399      1402      1405      1403      1402      1404      1403      1402      1405
      1404      1402      1405      1402      1405      1406      1402      1405      1407
      1402      1405      1408      1406      1405      1407      1406      1405      1408
      1407      1405      1408      1405      1408      1409      1405      1408      1410
      1405      1408      1411      1409      1408      1410      1409      1408      1411
      1410      1408      1411      1408      1411      1412      1408      1411      1413
      1408      1411      1414      1412      1411      1413      1412      1411      1414
      1413      1411      1414      1411      1414      1415      1411      1414      1416
      1411      1414      1417      1415      1414      1416      1415      1414      1417
      1416      1414      1417      1414      1417      1418      1414      1417      1419
      1414      1417      1420      1418      1417      1419      1418      1417      1420
      1419      1417      1420      1417      1420      1421      1417      1420      1422
      1421      1420      1422      1420      1422      1423      1420      1422      1424
      1423      1422      1424      1422      1424      1425      1422      1424      1426
      1422      1424      1427      1425      1424      1426      1425      1424      1427
      1426      1424      1427      1424      1427      1428      1424      1427      1429
      1424      1427      1430      1428      1427      1429      1428      1427      1430
      1429      1427      1430      1427      1430      1431      1427      1430      1432
      1427      1430      1433      1431      1430      1432      1431      1430      1433
      1432      1430      1433      1430      1433      1434      1430      1433      1435
      1430      1433      1436      1434      1433      1435      1434      1433      1436
      1435      1433      1436      1433      1436      1437      1433      1436      1438
      1433      1436      1439      1437      1436      1438      1437      1436      1439
      1438      1436      1439      1436      1439      1440      1436      1439      1441
      1436      1439      1442      1440      1439      1441      1440      1439      1442
      1441      1439      1442      1439      1442      1443      1439      1442      1444
      1439      1442      1445      1443      1442      1444      1443      1442      1445
      1444      1442      1445      1442      1445      1446      1442      1445      1447
      1442      1445      1448      1446      1445      1447      1446      1445      1448
      1447      1445      1448      1450      1449      1451      1450      1449      1452
      1450      1449      1453      1451      1449      1452      1451      1449      1453
      1452      1449      1453      1449      1453      1454      1449      1453      1455
      1449      1453      1456      1454      1453      1455      1454      1453      1456
      1455      1453      1456      1453      1456      1457      1453      1456      1458
      1453      1456      1459      1457      1456      1458      1457      1456      1459
      1458      1456      1459      1456      1459      1460      1456      1459      1461
      1456      1459      1462      1460      1459      1461      1460      1459      1462
      1461      1459      1462      1459      1462      1463      1459      1462      1464
      1459      1462      1465      1463      1462      1464      1463      1462      1465
      1464      1462      1465      1462      1465      1466      1462      1465      1467
      1462      1465      1468      1466      1465      1467      1466      1465      1468
      1467      1465      1468      1465      1468      1469      1465      1468      1470
      1465      1468      1471      1469      1468      1470      1469      1468      1471
      1470      1468      1471      1468      1471      1472      1468      1471      1473
      1468      1471      1474      1472      1471      1473      1472      1471      1474
      1473      1471      1474      1471      1474      1475      1471      1474      1476
      1471      1474      1477      1475      1474      1476      1475      1474      1477
      1476      1474      1477      1474      1477      1478      1474      1477      1479
      1474      1477      1480      1478      1477      1479      1478      1477      1480
      1479      1477      1480      1477      1480      1481      1477      1480      1482
      1477      1480      1483      1481      1480      1482      1481      1480      1483
      1482      1480      1483      1480      1483      1484      1480      1483      1485
      1480      1483      1486      1484      1483      1485      1484      1483      1486
      1485      1483      1486      1483      1486      1487      1483      1486      1488
      1483      1486      1489      1487      1486      1488      1487      1486      1489
      1488      1486      1489      1486      1489      1490      1486      1489      1491
      1486      1489      1492      1490      1489      1491      1490      1489      1492
      1491      1489      1492      1495      1492      1489      1495      1492      1493
      1495      1492      1494      1489      1492      1493      1489      1492      1494
      1493      1492      1494      1492      1495      1496      1492      1495      1497
      1496      1495      1497      1495      1497      1498      1497      1498      1499
      1497      1498      1500      1497      1498      1501      1499      1498      1500
      1499      1498      1501      1500      1498      1501      1498      1501      1502
      1498      1501      1503      1498      1501      1530      1502      1501      1503
      1502      1501      1530      1503      1501      1530      1501      1503      1504
      1501      1503      1505      1501      1503      1506      1504      1503      1505
      1504      1503      1506      1505      1503      1506      1503      1506      1507
      1506      1507      1508      1506      1507      1528      1506      1507      1529
      1508      1507      1528      1508      1507      1529      1528      1507      1529
      1507      1508      1509      1508      1509      1510      1508      1509      1511
      1508      1509      1512      1510      1509      1511      1510      1509      1512
      1511      1509      1512      1509      1512      1513      1509      1512      1514
      1509      1512      1515      1513      1512      1514      1513      1512      1515
      1514      1512      1515      1512      1515      1516      1512      1515      1520
      1512      1515      1524      1516      1515      1520      1516      1515      1524
      1520      1515      1524      1515      1516      1517      1515      1516      1518
      1515      1516      1519      1517      1516      1518      1517      1516      1519
      1518      1516      1519      1515      1520      1521      1515      1520      1522
      1515      1520      1523      1521      1520      1522      1521      1520      1523
      1522      1520      1523      1515      1524      1525      1515      1524      1526
      1515      1524      1527      1525      1524      1526      1525      1524      1527
      1526      1524      1527      1501      1530      1531      1533      1531      1530
      1533      1531      1532      1530      1531      1532      1531      1533      1534
      1531      1533      1535      1531      1533      1536      1534      1533      1535
      1534      1533      1536      1535      1533      1536      1533      1536      1537
      1533      1536      1538      1533      1536      1539      1537      1536      1538
      1537      1536      1539      1538      1536      1539      1536      1539      1540
      1536      1539      1541      1536      1539      1542      1540      1539      1541
      1540      1539      1542      1541      1539      1542      1539      1542      1543
      1539      1542      1544      1539      1542      1545      1543      1542      1544
      1543      1542      1545      1544      1542      1545      1542      1545      1546
      1542      1545      1547      1542      1545      1548      1546      1545      1547
      1546      1545      1548      1547      1545      1548      1545      1548      1549
      1545      1548      1550      1545      1548      1551      1549      1548      1550
      1549      1548      1551      1550      1548      1551      1548      1551      1552
      1548      1551      1553      1548      1551      1554      1552      1551      1553
      1552      1551      1554      1553      1551      1554      1551      1554      1555
      1551      1554      1556      1555      1554      1556      1554      1556      1557
      1554      1556      1558      1557      1556      1558      1556      1558      1559
      1556      1558      1560      1556      1558      1561      1559      1558      1560
      1559      1558      1561      1560      1558      1561      1558      1561      1562
      1558      1561      1563      1558      1561      1564      1562      1561      1563
      1562      1561      1564      1563      1561      1564      1561      1564      1565
      1561      1564      1566      1561      1564      1567      1565      1564      1566
      1565      1564      1567      1566      1564      1567      1564      1567      1568
      1564      1567      1569      1564      1567      1570      1568      1567      1569
      1568      1567      1570      1569      1567      1570      1567      1570      1571
      1567      1570      1572      1567      1570      1573      1571      1570      1572
      1571      1570      1573      1572      1570      1573      1570      1573      1574
      1570      1573      1575      1570      1573      1576      1574      1573      1575
      1574      1573      1576      1575      1573      1576      1573      1576      1577
      1573      1576      1578      1573      1576      1579      1577      1576      1578
      1577      1576      1579      1578      1576      1579      1576      1579      1580
      1576      1579      1581      1576      1579      1582      1580      1579      1581
      1580      1579      1582      1581      1579      1582      1584      1583      1585
      1584      1583      1586      1584      1583      1587      1585      1583      1586
      1585      1583      1587      1586      1583      1587      1583      1587      1588
      1583      1587      1589      1583      1587      1590      1588      1587      1589
      1588      1587      1590      1589      1587      1590      1587      1590      1591
      1587      1590      1592      1587      1590      1593      1591      1590      1592
      1591      1590      1593      1592      1590      1593      1590      1593      1594
      1590      1593      1595      1590      1593      1596      1594      1593      1595
      1594      1593      1596      1595      1593      1596      1593      1596      1597
      1593      1596      1598      1593      1596      1599      1597      1596      1598
      1597      1596      1599      1598      1596      1599      1596      1599      1600
      1596      1599      1601      1596      1599      1602      1600      1599      1601
      1600      1599      1602      1601      1599      1602      1599      1602      1603
      1599      1602      1604      1599      1602      1605      1603      1602      1604
      1603      1602      1605      1604      1602      1605      1602      1605      1606
      1602      1605      1607      1602      1605      1608      1606      1605      1607
      1606      1605      1608      1607      1605      1608      1605      1608      1609
      1605      1608      1610      1605      1608      1611      1609      1608      1610
      1609      1608      1611      1610      1608      1611      1608      1611      1612
      1608      1611      1613      1608      1611      1614      1612      1611      1613
      1612      1611      1614      1613      1611      1614      1611      1614      1615
      1611      1614      1616      1611      1614      1617      1615      1614      1616
      1615      1614      1617      1616      1614      1617      1614      1617      1618
      1614      1617      1619      1614      1617      1620      1618      1617      1619
      1618      1617      1620      1619      1617      1620      1617      1620      1621
      1617      1620      1622      1617      1620      1623      1621      1620      1622
      1621      1620      1623      1622      1620      1623      1620      1623      1624
      1620      1623      1625      1620      1623      1626      1624      1623      1625
      1624      1623      1626      1625      1623      1626      1629      1626      1623
      1629      1626      1627      1629      1626      1628      1623      1626      1627
      1623      1626      1628      1627      1626      1628      1626      1629      1630
      1626      1629      1631      1630      1629      1631      1629      1631      1632
      1631      1632      1633      1631      1632      1634      1631      1632      1635
      1633      1632      1634      1633      1632      1635      1634      1632      1635
      1632      1635      1636      1632      1635      1637      1632      1635      1664
      1636      1635      1637      1636      1635      1664      1637      1635      1664
      1635      1637      1638      1635      1637      1639      1635      1637      1640
      1638      1637      1639      1638      1637      1640      1639      1637      1640
      1637      1640      1641      1640      1641      1642      1640      1641      1662
      1640      1641      1663      1642      1641      1662      1642      1641      1663
      1662      1641      1663      1641      1642      1643      1642      1643      1644
      1642      1643      1645      1642      1643      1646      1644      1643      1645
      1644      1643      1646      1645      1643      1646      1643      1646      1647
      1643      1646      1648      1643      1646      1649      1647      1646      1648
      1647      1646      1649      1648      1646      1649      1646      1649      1650
      1646      1649      1654      1646      1649      1658      1650      1649      1654
      1650      1649      1658      1654      1649      1658      1649      1650      1651
      1649      1650      1652      1649      1650      1653      1651      1650      1652
      1651      1650      1653      1652      1650      1653      1649      1654      1655
      1649      1654      1656      1649      1654      1657      1655      1654      1656
      1655      1654      1657      1656      1654      1657      1649      1658      1659
      1649      1658      1660      1649      1658      1661      1659      1658      1660
      1659      1658      1661      1660      1658      1661      1635      1664      1665
      1667      1665      1664      1667      1665      1666      1664      1665      1666
      1665      1667      1668      1665      1667      1669      1665      1667      1670
      1668      1667      1669      1668      1667      1670      1669      1667      1670
      1667      1670      1671      1667      1670      1672      1667      1670      1673
      1671      1670      1672      1671      1670      1673      1672      1670      1673
      1670      1673      1674      1670      1673      1675      1670      1673      1676
      1674      1673      1675      1674      1673      1676      1675      1673      1676
      1673      1676      1677      1673      1676      1678      1673      1676      1679
      1677      1676      1678      1677      1676      1679      1678      1676      1679
      1676      1679      1680      1676      1679      1681      1676      1679      1682
      1680      1679      1681      1680      1679      1682      1681      1679      1682
      1679      1682      1683      1679      1682      1684      1679      1682      1685
      1683      1682      1684      1683      1682      1685      1684      1682      1685
      1682      1685      1686      1682      1685      1687      1682      1685      1688
      1686      1685      1687      1686      1685      1688      1687      1685      1688
      1685      1688      1689      1685      1688      1690      1689      1688      1690
      1688      1690      1691      1688      1690      1692      1691      1690      1692
      1690      1692      1693      1690      1692      1694      1690      1692      1695
      1693      1692      1694      1693      1692      1695      1694      1692      1695
      1692      1695      1696      1692      1695      1697      1692      1695      1698
      1696      1695      1697      1696      1695      1698      1697      1695      1698
      1695      1698      1699      1695      1698      1700      1695      1698      1701
      1699      1698      1700      1699      1698      1701      1700      1698      1701
      1698      1701      1702      1698      1701      1703      1698      1701      1704
      1702      1701      1703      1702      1701      1704      1703      1701      1704
      1701      1704      1705      1701      1704      1706      1701      1704      1707
      1705      1704      1706      1705      1704      1707      1706      1704      1707
      1704      1707      1708      1704      1707      1709      1704      1707      1710
      1708      1707      1709      1708      1707      1710      1709      1707      1710
      1707      1710      1711      1707      1710      1712      1707      1710      1713
      1711      1710      1712      1711      1710      1713      1712      1710      1713
      1710      1713      1714      1710      1713      1715      1710      1713      1716
      1714      1713      1715      1714      1713      1716      1715      1713      1716
      1718      1717      1719      1718      1717      1720      1718      1717      1721
      1719      1717      1720      1719      1717      1721      1720      1717      1721
      1717      1721      1722      1717      1721      1723      1717      1721      1724
      1722      1721      1723      1722      1721      1724      1723      1721      1724
      1721      1724      1725      1721      1724      1726      1721      1724      1727
      1725      1724      1726      1725      1724      1727      1726      1724      1727
      1724      1727      1728      1724      1727      1729      1724      1727      1730
      1728      1727      1729      1728      1727      1730      1729      1727      1730
      1727      1730      1731      1727      1730      1732      1727      1730      1733
      1731      1730      1732      1731      1730      1733      1732      1730      1733
      1730      1733      1734      1730      1733      1735      1730      1733      1736
      1734      1733      1735      1734      1733      1736      1735      1733      1736
      1733      1736      1737      1733      1736      1738      1733      1736      1739
      1737      1736      1738      1737      1736      1739      1738      1736      1739
      1736      1739      1740      1736      1739      1741      1736      1739      1742
      1740      1739      1741      1740      1739      1742      1741      1739      1742
      1739      1742      1743      1739      1742      1744      1739      1742      1745
      1743      1742      1744      1743      1742      1745      1744      1742      1745
      1742      1745      1746      1742      1745      1747      1742      1745      1748
      1746      1745      1747      1746      1745      1748      1747      1745      1748
      1745      1748      1749      1745      1748      1750      1745      1748      1751
      1749      1748      1750      1749      1748      1751      1750      1748      1751
      1748      1751      1752      1748      1751      1753      1748      1751      1754
      1752      1751      1753      1752      1751      1754      1753      1751      1754
      1751      1754      1755      1751      1754      1756      1751      1754      1757
      1755      1754      1756      1755      1754      1757      1756      1754      1757
      1754      1757      1758      1754      1757      1759      1754      1757      1760
      1758      1757      1759      1758      1757      1760      1759      1757      1760
      1763      1760      1757      1763      1760      1761      1763      1760      1762
      1757      1760      1761      1757      1760      1762      1761      1760      1762
      1760      1763      1764      1760      1763      1765      1764      1763      1765
      1763      1765      1766      1765      1766      1767      1765      1766      1768
      1765      1766      1769      1767      1766      1768      1767      1766      1769
      1768      1766      1769      1766      1769      1770      1766      1769      1771
      1766      1769      1798      1770      1769      1771      1770      1769      1798
      1771      1769      1798      1769      1771      1772      1769      1771      1773
      1769      1771      1774      1772      1771      1773      1772      1771      1774
      1773      1771      1774      1771      1774      1775      1774      1775      1776
      1774      1775      1796      1774      1775      1797      1776      1775      1796
      1776      1775      1797      1796      1775      1797      1775      1776      1777
      1776      1777      1778      1776      1777      1779      1776      1777      1780
      1778      1777      1779      1778      1777      1780      1779      1777      1780
      1777      1780      1781      1777      1780      1782      1777      1780      1783
      1781      1780      1782      1781      1780      1783      1782      1780      1783
      1780      1783      1784      1780      1783      1788      1780      1783      1792
      1784      1783      1788      1784      1783      1792      1788      1783      1792
      1783      1784      1785      1783      1784      1786      1783      1784      1787
      1785      1784      1786      1785      1784      1787      1786      1784      1787
      1783      1788      1789      1783      1788      1790      1783      1788      1791
      1789      1788      1790      1789      1788      1791      1790      1788      1791
      1783      1792      1793      1783      1792      1794      1783      1792      1795
      1793      1792      1794      1793      1792      1795      1794      1792      1795
      1769      1798      1799      1801      1799      1798      1801      1799      1800
      1798      1799      1800      1799      1801      1802      1799      1801      1803
      1799      1801      1804      1802      1801      1803      1802      1801      1804
      1803      1801      1804      1801      1804      1805      1801      1804      1806
      1801      1804      1807      1805      1804      1806      1805      1804      1807
      1806      1804      1807      1804      1807      1808      1804      1807      1809
      1804      1807      1810      1808      1807      1809      1808      1807      1810
      1809      1807      1810      1807      1810      1811      1807      1810      1812
      1807      1810      1813      1811      1810      1812      1811      1810      1813
      1812      1810      1813      1810      1813      1814      1810      1813      1815
      1810      1813      1816      1814      1813      1815      1814      1813      1816
      1815      1813      1816      1813      1816      1817      1813      1816      1818
      1813      1816      1819      1817      1816      1818      1817      1816      1819
      1818      1816      1819      1816      1819      1820      1816      1819      1821
      1816      1819      1822      1820      1819      1821      1820      1819      1822
      1821      1819      1822      1819      1822      1823      1819      1822      1824
      1823      1822      1824      1822      1824      1825      1822      1824      1826
      1825      1824      1826      1824      1826      1827      1824      1826      1828
      1824      1826      1829      1827      1826      1828      1827      1826      1829
      1828      1826      1829      1826      1829      1830      1826      1829      1831
      1826      1829      1832      1830      1829      1831      1830      1829      1832
      1831      1829      1832      1829      1832      1833      1829      1832      1834
      1829      1832      1835      1833      1832      1834      1833      1832      1835
      1834      1832      1835      1832      1835      1836      1832      1835      1837
      1832      1835      1838      1836      1835      1837      1836      1835      1838
      1837      1835      1838      1835      1838      1839      1835      1838      1840
      1835      1838      1841      1839      1838      1840      1839      1838      1841
      1840      1838      1841      1838      1841      1842      1838      1841      1843
      1838      1841      1844      1842      1841      1843      1842      1841      1844
      1843      1841      1844      1841      1844      1845      1841      1844      1846
      1841      1844      1847      1845      1844      1846      1845      1844      1847
      1846      1844      1847      1844      1847      1848      1844      1847      1849
      1844      1847      1850      1848      1847      1849      1848      1847      1850
      1849      1847      1850      1852      1851      1853      1852      1851      1854
      1852      1851      1855      1853      1851      1854      1853      1851      1855
      1854      1851      1855      1851      1855      1856      1851      1855      1857
      1851      1855      1858      1856      1855      1857      1856      1855      1858
      1857      1855      1858      1855      1858      1859      1855      1858      1860
      1855      1858      1861      1859      1858      1860      1859      1858      1861
      1860      1858      1861      1858      1861      1862      1858      1861      1863
      1858      1861      1864      1862      1861      1863      1862      1861      1864
      1863      1861      1864      1861      1864      1865      1861      1864      1866
      1861      1864      1867      1865      1864      1866      1865      1864      1867
      1866      1864      1867      1864      1867      1868      1864      1867      1869
      1864      1867      1870      1868      1867      1869      1868      1867      1870
      1869      1867      1870      1867      1870      1871      1867      1870      1872
      1867      1870      1873      1871      1870      1872      1871      1870      1873
      1872      1870      1873      1870      1873      1874      1870      1873      1875
      1870      1873      1876      1874      1873      1875      1874      1873      1876
      1875      1873      1876      1873      1876      1877      1873      1876      1878
      1873      1876      1879      1877      1876      1878      1877      1876      1879
      1878      1876      1879      1876      1879      1880      1876      1879      1881
      1876      1879      1882      1880      1879      1881      1880      1879      1882
      1881      1879      1882      1879      1882      1883      1879      1882      1884
      1879      1882      1885      1883      1882      1884      1883      1882      1885
      1884      1882      1885      1882      1885      1886      1882      1885      1887
      1882      1885      1888      1886      1885      1887      1886      1885      1888
      1887      1885      1888      1885      1888      1889      1885      1888      1890
      1885      1888      1891      1889      1888      1890      1889      1888      1891
      1890      1888      1891      1888      1891      1892      1888      1891      1893
      1888      1891      1894      1892      1891      1893      1892      1891      1894
      1893      1891      1894      1897      1894      1891      1897      1894      1895
      1897      1894      1896      1891      1894      1895      1891      1894      1896
      1895      1894      1896      1894      1897      1898      1894      1897      1899
      1898      1897      1899      1897      1899      1900      1899      1900      1901
      1899      1900      1902      1899      1900      1903      1901      1900      1902
      1901      1900      1903      1902      1900      1903      1900      1903      1904
      1900      1903      1905      1900      1903      1932      1904      1903      1905
      1904      1903      1932      1905      1903      1932      1903      1905      1906
      1903      1905      1907      1903      1905      1908      1906      1905      1907
      1906      1905      1908      1907      1905      1908      1905      1908      1909
      1908      1909      1910      1908      1909      1930      1908      1909      1931
      1910      1909      1930      1910      1909      1931      1930      1909      1931
      1909      1910      1911      1910      1911      1912      1910      1911      1913
      1910      1911      1914      1912      1911      1913      1912      1911      1914
      1913      1911      1914      1911      1914      1915      1911      1914      1916
      1911      1914      1917      1915      1914      1916      1915      1914      1917
      1916      1914      1917      1914      1917      1918      1914      1917      1922
      1914      1917      1926      1918      1917      1922      1918      1917      1926
      1922      1917      1926      1917      1918      1919      1917      1918      1920
      1917      1918      1921      1919      1918      1920      1919      1918      1921
      1920      1918      1921      1917      1922      1923      1917      1922      1924
      1917      1922      1925      1923      1922      1924      1923      1922      1925
      1924      1922      1925      1917      1926      1927      1917      1926      1928
      1917      1926      1929      1927      1926      1928      1927      1926      1929
      1928      1926      1929      1903      1932      1933      1935      1933      1932
      1935      1933      1934      1932      1933      1934      1933      1935      1936
      1933      1935      1937      1933      1935      1938      1936      1935      1937
      1936      1935      1938      1937      1935      1938      1935      1938      1939
      1935      1938      1940      1935      1938      1941      1939      1938      1940
      1939      1938      1941      1940      1938      1941      1938      1941      1942
      1938      1941      1943      1938      1941      1944      1942      1941      1943
      1942      1941      1944      1943      1941      1944      1941      1944      1945
      1941      1944      1946      1941      1944      1947      1945      1944      1946
      1945      1944      1947      1946      1944      1947      1944      1947      1948
      1944      1947      1949      1944      1947      1950      1948      1947      1949
      1948      1947      1950      1949      1947      1950      1947      1950      1951
      1947      1950      1952      1947      1950      1953      1951      1950      1952
      1951      1950      1953      1952      1950      1953      1950      1953      1954
      1950      1953      1955      1950      1953      1956      1954      1953      1955
      1954      1953      1956      1955      1953      1956      1953      1956      1957
      1953      1956      1958      1957      1956      1958      1956      1958      1959
      1956      1958      1960      1959      1958      1960      1958      1960      1961
      1958      1960      1962      1958      1960      1963      1961      1960      1962
      1961      1960      1963      1962      1960      1963      1960      1963      1964
      1960      1963      1965      1960      1963      1966      1964      1963      1965
      1964      1963      1966      1965      1963      1966      1963      1966      1967
      1963      1966      1968      1963      1966      1969      1967      1966      1968
      1967      1966      1969      1968      1966      1969      1966      1969      1970
      1966      1969      1971      1966      1969      1972      1970      1969      1971
      1970      1969      1972      1971      1969      1972      1969      1972      1973
      1969      1972      1974      1969      1972      1975      1973      1972      1974
      1973      1972      1975      1974      1972      1975      1972      1975      1976
      1972      1975      1977      1972      1975      1978      1976      1975      1977
      1976      1975      1978      1977      1975      1978      1975      1978      1979
      1975      1978      1980      1975      1978      1981      1979      1978      1980
      1979      1978      1981      1980      1978      1981      1978      1981      1982
      1978      1981      1983      1978      1981      1984      1982      1981      1983
      1982      1981      1984      1983      1981      1984      1986      1985      1987
      1986      1985      1988      1986      1985      1989      1987      1985      1988
      1987      1985      1989      1988      1985      1989      1985      1989      1990
      1985      1989      1991      1985      1989      1992      1990      1989      1991
      1990      1989      1992      1991      1989      1992      1989      1992      1993
      1989      1992      1994      1989      1992      1995      1993      1992      1994
      1993      1992      1995      1994      1992      1995      1992      1995      1996
      1992      1995      1997      1992      1995      1998      1996      1995      1997
      1996      1995      1998      1997      1995      1998      1995      1998      1999
      1995      1998      2000      1995      1998      2001      1999      1998      2000
      1999      1998      2001      2000      1998      2001      1998      2001      2002
      1998      2001      2003      1998      2001      2004      2002      2001      2003
      2002      2001      2004      2003      2001      2004      2001      2004      2005
      2001      2004      2006      2001      2004      2007      2005      2004      2006
      2005      2004      2007      2006      2004      2007      2004      2007      2008
      2004      2007      2009      2004      2007      2010      2008      2007      2009
      2008      2007      2010      2009      2007      2010      2007      2010      2011
      2007      2010      2012      2007      2010      2013      2011      2010      2012
      2011      2010      2013      2012      2010      2013      2010      2013      2014
      2010      2013      2015      2010      2013      2016      2014      2013      2015
      2014      2013      2016      2015      2013      2016      2013      2016      2017
      2013      2016      2018      2013      2016      2019      2017      2016      2018
      2017      2016      2019      2018      2016      2019      2016      2019      2020
      2016      2019      2021      2016      2019      2022      2020      2019      2021
      2020      2019      2022      2021      2019      2022      2019      2022      2023
      2019      2022      2024      2019      2022      2025      2023      2022      2024
      2023      2022      2025      2024      2022      2025      2022      2025      2026
      2022      2025      2027      2022      2025      2028      2026      2025      2027
      2026      2025      2028      2027      2025      2028      2031      2028      2025
      2031      2028      2029      2031      2028      2030      2025      2028      2029
      2025      2028      2030      2029      2028      2030      2028      2031      2032
      2028      2031      2033      2032      2031      2033      2031      2033      2034
      2033      2034      2035      2033      2034      2036      2033      2034      2037
      2035      2034      2036      2035      2034      2037      2036      2034      2037
      2034      2037      2038      2034      2037      2039      2034      2037      2066
      2038      2037      2039      2038      2037      2066      2039      2037      2066
      2037      2039      2040      2037      2039      2041      2037      2039      2042
      2040      2039      2041      2040      2039      2042      2041      2039      2042
      2039      2042      2043      2042      2043      2044      2042      2043      2064
      2042      2043      2065      2044      2043      2064      2044      2043      2065
      2064      2043      2065      2043      2044      2045      2044      2045      2046
      2044      2045      2047      2044      2045      2048      2046      2045      2047
      2046      2045      2048      2047      2045      2048      2045      2048      2049
      2045      2048      2050      2045      2048      2051      2049      2048      2050
      2049      2048      2051      2050      2048      2051      2048      2051      2052
      2048      2051      2056      2048      2051      2060      2052      2051      2056
      2052      2051      2060      2056      2051      2060      2051      2052      2053
      2051      2052      2054      2051      2052      2055      2053      2052      2054
      2053      2052      2055      2054      2052      2055      2051      2056      2057
      2051      2056      2058      2051      2056      2059      2057      2056      2058
      2057      2056      2059      2058      2056      2059      2051      2060      2061
      2051      2060      2062      2051      2060      2063      2061      2060      2062
      2061      2060      2063      2062      2060      2063      2037      2066      2067
      2069      2067      2066      2069      2067      2068      2066      2067      2068
      2067      2069      2070      2067      2069      2071      2067      2069      2072
      2070      2069      2071      2070      2069      2072      2071      2069      2072
      2069      2072      2073      2069      2072      2074      2069      2072      2075
      2073      2072      2074      2073      2072      2075      2074      2072      2075
      2072      2075      2076      2072      2075      2077      2072      2075      2078
      2076      2075      2077      2076      2075      2078      2077      2075      2078
      2075      2078      2079      2075      2078      2080      2075      2078      2081
      2079      2078      2080      2079      2078      2081      2080      2078      2081
      2078      2081      2082      2078      2081      2083      2078      2081      2084
      2082      2081      2083      2082      2081      2084      2083      2081      2084
      2081      2084      2085      2081      2084      2086      2081      2084      2087
      2085      2084      2086      2085      2084      2087      2086      2084      2087
      2084      2087      2088      2084      2087      2089      2084      2087      2090
      2088      2087      2089      2088      2087      2090      2089      2087      2090
      2087      2090      2091      2087      2090      2092      2091      2090      2092
      2090      2092      2093      2090      2092      2094      2093      2092      2094
      2092      2094      2095      2092      2094      2096      2092      2094      2097
      2095      2094      2096      2095      2094      2097      2096      2094      2097
      2094      2097      2098      2094      2097      2099      2094      2097      2100
      2098      2097      2099      2098      2097      2100      2099      2097      2100
      2097      2100      2101      2097      2100      2102      2097      2100      2103
      2101      2100      2102      2101      2100      2103      2102      2100      2103
      2100      2103      2104      2100      2103      2105      2100      2103      2106
      2104      2103      2105      2104      2103      2106      2105      2103      2106
      2103      2106      2107      2103      2106      2108      2103      2106      2109
      2107      2106      2108      2107      2106      2109      2108      2106      2109
      2106      2109      2110      2106      2109      2111      2106      2109      2112
      2110      2109      2111      2110      2109      2112      2111      2109      2112
      2109      2112      2113      2109      2112      2114      2109      2112      2115
      2113      2112      2114      2113      2112      2115      2114      2112      2115
      2112      2115      2116      2112      2115      2117      2112      2115      2118
      2116      2115      2117      2116      2115      2118      2117      2115      2118
      2120      2119      2121      2120      2119      2122      2120      2119      2123
      2121      2119      2122      2121      2119      2123      2122      2119      2123
      2119      2123      2124      2119      2123      2125      2119      2123      2126
      2124      2123      2125      2124      2123      2126      2125      2123      2126
      2123      2126      2127      2123      2126      2128      2123      2126      2129
      2127      2126      2128      2127      2126      2129      2128      2126      2129
      2126      2129      2130      2126      2129      2131      2126      2129      2132
      2130      2129      2131      2130      2129      2132      2131      2129      2132
      2129      2132      2133      2129      2132      2134      2129      2132      2135
      2133      2132      2134      2133      2132      2135      2134      2132      2135
      2132      2135      2136      2132      2135      2137      2132      2135      2138
      2136      2135      2137      2136      2135      2138      2137      2135      2138
      2135      2138      2139      2135      2138      2140      2135      2138      2141
      2139      2138      2140      2139      2138      2141      2140      2138      2141
      2138      2141      2142      2138      2141      2143      2138      2141      2144
      2142      2141      2143      2142      2141      2144      2143      2141      2144
      2141      2144      2145      2141      2144      2146      2141      2144      2147
      2145      2144      2146      2145      2144      2147      2146      2144      2147
      2144      2147      2148      2144      2147      2149      2144      2147      2150
      2148      2147      2149      2148      2147      2150      2149      2147      2150
      2147      2150      2151      2147      2150      2152      2147      2150      2153
      2151      2150      2152      2151      2150      2153      2152      2150      2153
      2150      2153      2154      2150      2153      2155      2150      2153      2156
      2154      2153      2155      2154      2153      2156      2155      2153      2156
      2153      2156      2157      2153      2156      2158      2153      2156      2159
      2157      2156      2158      2157      2156      2159      2158      2156      2159
      2156      2159      2160      2156      2159      2161      2156      2159      2162
      2160      2159      2161      2160      2159      2162      2161      2159      2162
      2165      2162      2159      2165      2162      2163      2165      2162      2164
      2159      2162      2163      2159      2162      2164      2163      2162      2164
      2162      2165      2166      2162      2165      2167      2166      2165      2167
      2165      2167      2168      2167      2168      2169      2167      2168      2170
      2167      2168      2171      2169      2168      2170      2169      2168      2171
      2170      2168      2171      2168      2171      2172      2168      2171      2173
      2168      2171      2200      2172      2171      2173      2172      2171      2200
      2173      2171      2200      2171      2173      2174      2171      2173      2175
      2171      2173      2176      2174      2173      2175      2174      2173      2176
      2175      2173      2176      2173      2176      2177      2176      2177      2178
      2176      2177      2198      2176      2177      2199      2178      2177      2198
      2178      2177      2199      2198      2177      2199      2177      2178      2179
      2178      2179      2180      2178      2179      2181      2178      2179      2182
      2180      2179      2181      2180      2179      2182      2181      2179      2182
      2179      2182      2183      2179      2182      2184      2179      2182      2185
      2183      2182      2184      2183      2182      2185      2184      2182      2185
      2182      2185      2186      2182      2185      2190      2182      2185      2194
      2186      2185      2190      2186      2185      2194      2190      2185      2194
      2185      2186      2187      2185      2186      2188      2185      2186      2189
      2187      2186      2188      2187      2186      2189      2188      2186      2189
      2185      2190      2191      2185      2190      2192      2185      2190      2193
      2191      2190      2192      2191      2190      2193      2192      2190      2193
      2185      2194      2195      2185      2194      2196      2185      2194      2197
      2195      2194      2196      2195      2194      2197      2196      2194      2197
      2171      2200      2201      2203      2201      2200      2203      2201      2202
      2200      2201      2202      2201      2203      2204      2201      2203      2205
      2201      2203      2206      2204      2203      2205      2204      2203      2206
      2205      2203      2206      2203      2206      2207      2203      2206      2208
      2203      2206      2209      2207      2206      2208      2207      2206      2209
      2208      2206      2209      2206      2209      2210      2206      2209      2211
      2206      2209      2212      2210      2209      2211      2210      2209      2212
      2211      2209      2212      2209      2212      2213      2209      2212      2214
      2209      2212      2215      2213      2212      2214      2213      2212      2215
      2214      2212      2215      2212      2215      2216      2212      2215      2217
      2212      2215      2218      2216      2215      2217      2216      2215      2218
      2217      2215      2218      2215      2218      2219      2215      2218      2220
      2215      2218      2221      2219      2218      2220      2219      2218      2221
      2220      2218      2221      2218      2221      2222      2218      2221      2223
      2218      2221      2224      2222      2221      2223      2222      2221      2224
      2223      2221      2224      2221      2224      2225      2221      2224      2226
      2225      2224      2226      2224      2226      2227      2224      2226      2228
      2227      2226      2228      2226      2228      2229      2226      2228      2230
      2226      2228      2231      2229      2228      2230      2229      2228      2231
      2230      2228      2231      2228      2231      2232      2228      2231      2233
      2228      2231      2234      2232      2231      2233      2232      2231      2234
      2233      2231      2234      2231      2234      2235      2231      2234      2236
      2231      2234      2237      2235      2234      2236      2235      2234      2237
      2236      2234      2237      2234      2237      2238      2234      2237      2239
      2234      2237      2240      2238      2237      2239      2238      2237      2240
      2239      2237      2240      2237      2240      2241      2237      2240      2242
      2237      2240      2243      2241      2240      2242      2241      2240      2243
      2242      2240      2243      2240      2243      2244      2240      2243      2245
      2240      2243      2246      2244      2243      2245      2244      2243      2246
      2245      2243      2246      2243      2246      2247      2243      2246      2248
      2243      2246      2249      2247      2246      2248      2247      2246      2249
      2248      2246      2249      2246      2249      2250      2246      2249      2251
      2246      2249      2252      2250      2249      2251      2250      2249      2252
      2251      2249      2252      2254      2253      2255      2254      2253      2256
      2254      2253      2257      2255      2253      2256      2255      2253      2257
      2256      2253      2257      2253      2257      2258      2253      2257      2259
      2253      2257      2260      2258      2257      2259      2258      2257      2260
      2259      2257      2260      2257      2260      2261      2257      2260      2262
      2257      2260      2263      2261      2260      2262      2261      2260      2263
      2262      2260      2263      2260      2263      2264      2260      2263      2265
      2260      2263      2266      2264      2263      2265      2264      2263      2266
      2265      2263      2266      2263      2266      2267      2263      2266      2268
      2263      2266      2269      2267      2266      2268      2267      2266      2269
      2268      2266      2269      2266      2269      2270      2266      2269      2271
      2266      2269      2272      2270      2269      2271      2270      2269      2272
      2271      2269      2272      2269      2272      2273      2269      2272      2274
      2269      2272      2275      2273      2272      2274      2273      2272      2275
      2274      2272      2275      2272      2275      2276      2272      2275      2277
      2272      2275      2278      2276      2275      2277      2276      2275      2278
      2277      2275      2278      2275      2278      2279      2275      2278      2280
      2275      2278      2281      2279      2278      2280      2279      2278      2281
      2280      2278      2281      2278      2281      2282      2278      2281      2283
      2278      2281      2284      2282      2281      2283      2282      2281      2284
      2283      2281      2284      2281      2284      2285      2281      2284      2286
      2281      2284      2287      2285      2284      2286      2285      2284      2287
      2286      2284      2287      2284      2287      2288      2284      2287      2289
      2284      2287      2290      2288      2287      2289      2288      2287      2290
      2289      2287      2290      2287      2290      2291      2287      2290      2292
      2287      2290      2293      2291      2290      2292      2291      2290      2293
      2292      2290      2293      2290      2293      2294      2290      2293      2295
      2290      2293      2296      2294      2293      2295      2294      2293      2296
      2295      2293      2296      2299      2296      2293      2299      2296      2297
      2299      2296      2298      2293      2296      2297      2293      2296      2298
      2297      2296      2298      2296      2299      2300      2296      2299      2301
      2300      2299      2301      2299      2301      2302      2301      2302      2303
      2301      2302      2304      2301      2302      2305      2303      2302      2304
      2303      2302      2305      2304      2302      2305      2302      2305      2306
      2302      2305      2307      2302      2305      2334      2306      2305      2307
      2306      2305      2334      2307      2305      2334      2305      2307      2308
      2305      2307      2309      2305      2307      2310      2308      2307      2309
      2308      2307      2310      2309      2307      2310      2307      2310      2311
      2310      2311      2312      2310      2311      2332      2310      2311      2333
      2312      2311      2332      2312      2311      2333      2332      2311      2333
      2311      2312      2313      2312      2313      2314      2312      2313      2315
      2312      2313      2316      2314      2313      2315      2314      2313      2316
      2315      2313      2316      2313      2316      2317      2313      2316      2318
      2313      2316      2319      2317      2316      2318      2317      2316      2319
      2318      2316      2319      2316      2319      2320      2316      2319      2324
      2316      2319      2328      2320      2319      2324      2320      2319      2328
      2324      2319      2328      2319      2320      2321      2319      2320      2322
      2319      2320      2323      2321      2320      2322      2321      2320      2323
      2322      2320      2323      2319      2324      2325      2319      2324      2326
      2319      2324      2327      2325      2324      2326      2325      2324      2327
      2326      2324      2327      2319      2328      2329      2319      2328      2330
      2319      2328      2331      2329      2328      2330      2329      2328      2331
      2330      2328      2331      2305      2334      2335      2337      2335      2334
      2337      2335      2336      2334      2335      2336      2335      2337      2338
      2335      2337      2339      2335      2337      2340      2338      2337      2339
      2338      2337      2340      2339      2337      2340      2337      2340      2341
      2337      2340      2342      2337      2340      2343      2341      2340      2342
      2341      2340      2343      2342      2340      2343      2340      2343      2344
      2340      2343      2345      2340      2343      2346      2344      2343      2345
      2344      2343      2346      2345      2343      2346      2343      2346      2347
      2343      2346      2348      2343      2346      2349      2347      2346      2348
      2347      2346      2349      2348      2346      2349      2346      2349      2350
      2346      2349      2351      2346      2349      2352      2350      2349      2351
      2350      2349      2352      2351      2349      2352      2349      2352      2353
      2349      2352      2354      2349      2352      2355      2353      2352      2354
      2353      2352      2355      2354      2352      2355      2352      2355      2356
      2352      2355      2357      2352      2355      2358      2356      2355      2357
      2356      2355      2358      2357      2355      2358      2355      2358      2359
      2355      2358      2360      2359      2358      2360      2358      2360      2361
      2358      2360      2362      2361      2360      2362      2360      2362      2363
      2360      2362      2364      2360      2362      2365      2363      2362      2364
      2363      2362      2365      2364      2362      2365      2362      2365      2366
      2362      2365      2367      2362      2365      2368      2366      2365      2367
      2366      2365      2368      2367      2365      2368      2365      2368      2369
      2365      2368      2370      2365      2368      2371      2369      2368      2370
      2369      2368      2371      2370      2368      2371      2368      2371      2372
      2368      2371      2373      2368      2371      2374      2372      2371      2373
      2372      2371      2374      2373      2371      2374      2371      2374      2375
      2371      2374      2376      2371      2374      2377      2375      2374      2376
      2375      2374      2377      2376      2374      2377      2374      2377      2378
      2374      2377      2379      2374      2377      2380      2378      2377      2379
      2378      2377      2380      2379      2377      2380      2377      2380      2381
      2377      2380      2382      2377      2380      2383      2381      2380      2382
      2381      2380      2383      2382      2380      2383      2380      2383      2384
      2380      2383      2385      2380      2383      2386      2384      2383      2385
      2384      2383      2386      2385      2383      2386      2388      2387      2389
      2388      2387      2390      2388      2387      2391      2389      2387      2390
      2389      2387      2391      2390      2387      2391      2387      2391      2392
      2387      2391      2393      2387      2391      2394      2392      2391      2393
      2392      2391      2394      2393      2391      2394      2391      2394      2395
      2391      2394      2396      2391      2394      2397      2395      2394      2396
      2395      2394      2397      2396      2394      2397      2394      2397      2398
      2394      2397      2399      2394      2397      2400      2398      2397      2399
      2398      2397      2400      2399      2397      2400      2397      2400      2401
      2397      2400      2402      2397      2400      2403      2401      2400      2402
      2401      2400      2403      2402      2400      2403      2400      2403      2404
      2400      2403      2405      2400      2403      2406      2404      2403      2405
      2404      2403      2406      2405      2403      2406      2403      2406      2407
      2403      2406      2408      2403      2406      2409      2407      2406      2408
      2407      2406      2409      2408      2406      2409      2406      2409      2410
      2406      2409      2411      2406      2409      2412      2410      2409      2411
      2410      2409      2412      2411      2409      2412      2409      2412      2413
      2409      2412      2414      2409      2412      2415      2413      2412      2414
      2413      2412      2415      2414      2412      2415      2412      2415      2416
      2412      2415      2417      2412      2415      2418      2416      2415      2417
      2416      2415      2418      2417      2415      2418      2415      2418      2419
      2415      2418      2420      2415      2418      2421      2419      2418      2420
      2419      2418      2421      2420      2418      2421      2418      2421      2422
      2418      2421      2423      2418      2421      2424      2422      2421      2423
      2422      2421      2424      2423      2421      2424      2421      2424      2425
      2421      2424      2426      2421      2424      2427      2425      2424      2426
      2425      2424      2427      2426      2424      2427      2424      2427      2428
      2424      2427      2429      2424      2427      2430      2428      2427      2429
      2428      2427      2430      2429      2427      2430      2433      2430      2427
      2433      2430      2431      2433      2430      2432      2427      2430      2431
      2427      2430      2432      2431      2430      2432      2430      2433      2434
      2430      2433      2435      2434      2433      2435      2433      2435      2436
      2435      2436      2437      2435      2436      2438      2435      2436      2439
      2437      2436      2438      2437      2436      2439      2438      2436      2439
      2436      2439      2440      2436      2439      2441      2436      2439      2468
      2440      2439      2441      2440      2439      2468      2441      2439      2468
      2439      2441      2442      2439      2441      2443      2439      2441      2444
      2442      2441      2443      2442      2441      2444      2443      2441      2444
      2441      2444      2445      2444      2445      2446      2444      2445      2466
      2444      2445      2467      2446      2445      2466      2446      2445      2467
      2466      2445      2467      2445      2446      2447      2446      2447      2448
      2446      2447      2449      2446      2447      2450      2448      2447      2449
      2448      2447      2450      2449      2447      2450      2447      2450      2451
      2447      2450      2452      2447      2450      2453      2451      2450      2452
      2451      2450      2453      2452      2450      2453      2450      2453      2454
      2450      2453      2458      2450      2453      2462      2454      2453      2458
      2454      2453      2462      2458      2453      2462      2453      2454      2455
      2453      2454      2456      2453      2454      2457      2455      2454      2456
      2455      2454      2457      2456      2454      2457      2453      2458      2459
      2453      2458      2460      2453      2458      2461      2459      2458      2460
      2459      2458      2461      2460      2458      2461      2453      2462      2463
      2453      2462      2464      2453      2462      2465      2463      2462      2464
      2463      2462      2465      2464      2462      2465      2439      2468      2469
      2471      2469      2468      2471      2469      2470      2468      2469      2470
      2469      2471      2472      2469      2471      2473      2469      2471      2474
      2472      2471      2473      2472      2471      2474      2473      2471      2474
      2471      2474      2475      2471      2474      2476      2471      2474      2477
      2475      2474      2476      2475      2474      2477      2476      2474      2477
      2474      2477      2478      2474      2477      2479      2474      2477      2480
      2478      2477      2479      2478      2477      2480      2479      2477      2480
      2477      2480      2481      2477      2480      2482      2477      2480      2483
      2481      2480      2482      2481      2480      2483      2482      2480      2483
      2480      2483      2484      2480      2483      2485      2480      2483      2486
      2484      2483      2485      2484      2483      2486      2485      2483      2486
      2483      2486      2487      2483      2486      2488      2483      2486      2489
      2487      2486      2488      2487      2486      2489      2488      2486      2489
      2486      2489      2490      2486      2489      2491      2486      2489      2492
      2490      2489      2491      2490      2489      2492      2491      2489      2492
      2489      2492      2493      2489      2492      2494      2493      2492      2494
      2492      2494      2495      2492      2494      2496      2495      2494      2496
      2494      2496      2497      2494      2496      2498      2494      2496      2499
      2497      2496      2498      2497      2496      2499      2498      2496      2499
      2496      2499      2500      2496      2499      2501      2496      2499      2502
      2500      2499      2501      2500      2499      2502      2501      2499      2502
      2499      2502      2503      2499      2502      2504      2499      2502      2505
      2503      2502      2504      2503      2502      2505      2504      2502      2505
      2502      2505      2506      2502      2505      2507      2502      2505      2508
      2506      2505      2507      2506      2505      2508      2507      2505      2508
      2505      2508      2509      2505      2508      2510      2505      2508      2511
      2509      2508      2510      2509      2508      2511      2510      2508      2511
      2508      2511      2512      2508      2511      2513      2508      2511      2514
      2512      2511      2513      2512      2511      2514      2513      2511      2514
      2511      2514      2515      2511      2514      2516      2511      2514      2517
      2515      2514      2516      2515      2514      2517      2516      2514      2517
      2514      2517      2518      2514      2517      2519      2514      2517      2520
      2518      2517      2519      2518      2517      2520      2519      2517      2520
      2522      2521      2523      2522      2521      2524      2522      2521      2525
      2523      2521      2524      2523      2521      2525      2524      2521      2525
      2521      2525      2526      2521      2525      2527      2521      2525      2528
      2526      2525      2527      2526      2525      2528      2527      2525      2528
      2525      2528      2529      2525      2528      2530      2525      2528      2531
      2529      2528      2530      2529      2528      2531      2530      2528      2531
      2528      2531      2532      2528      2531      2533      2528      2531      2534
      2532      2531      2533      2532      2531      2534      2533      2531      2534
      2531      2534      2535      2531      2534      2536      2531      2534      2537
      2535      2534      2536      2535      2534      2537      2536      2534      2537
      2534      2537      2538      2534      2537      2539      2534      2537      2540
      2538      2537      2539      2538      2537      2540      2539      2537      2540
      2537      2540      2541      2537      2540      2542      2537      2540      2543
      2541      2540      2542      2541      2540      2543      2542      2540      2543
      2540      2543      2544      2540      2543      2545      2540      2543      2546
      2544      2543      2545      2544      2543      2546      2545      2543      2546
      2543      2546      2547      2543      2546      2548      2543      2546      2549
      2547      2546      2548      2547      2546      2549      2548      2546      2549
      2546      2549      2550      2546      2549      2551      2546      2549      2552
      2550      2549      2551      2550      2549      2552      2551      2549      2552
      2549      2552      2553      2549      2552      2554      2549      2552      2555
      2553      2552      2554      2553      2552      2555      2554      2552      2555
      2552      2555      2556      2552      2555      2557      2552      2555      2558
      2556      2555      2557      2556      2555      2558      2557      2555      2558
      2555      2558      2559      2555      2558      2560      2555      2558      2561
      2559      2558      2560      2559      2558      2561      2560      2558      2561
      2558      2561      2562      2558      2561      2563      2558      2561      2564
      2562      2561      2563      2562      2561      2564      2563      2561      2564
      2567      2564      2561      2567      2564      2565      2567      2564      2566
      2561      2564      2565      2561      2564      2566      2565      2564      2566
      2564      2567      2568      2564      2567      2569      2568      2567      2569
      2567      2569      2570      2569      2570      2571      2569      2570      2572
      2569      2570      2573      2571      2570      2572      2571      2570      2573
      2572      2570      2573      2570      2573      2574      2570      2573      2575
      2570      2573      2602      2574      2573      2575      2574      2573      2602
      2575      2573      2602      2573      2575      2576      2573      2575      2577
      2573      2575      2578      2576      2575      2577      2576      2575      2578
      2577      2575      2578      2575      2578      2579      2578      2579      2580
      2578      2579      2600      2578      2579      2601      2580      2579      2600
      2580      2579      2601      2600      2579      2601      2579      2580      2581
      2580      2581      2582      2580      2581      2583      2580      2581      2584
      2582      2581      2583      2582      2581      2584      2583      2581      2584
      2581      2584      2585      2581      2584      2586      2581      2584      2587
      2585      2584      2586      2585      2584      2587      2586      2584      2587
      2584      2587      2588      2584      2587      2592      2584      2587      2596
      2588      2587      2592      2588      2587      2596      2592      2587      2596
      2587      2588      2589      2587      2588      2590      2587      2588      2591
      2589      2588      2590      2589      2588      2591      2590      2588      2591
      2587      2592      2593      2587      2592      2594      2587      2592      2595
      2593      2592      2594      2593      2592      2595      2594      2592      2595
      2587      2596      2597      2587      2596      2598      2587      2596      2599
      2597      2596      2598      2597      2596      2599      2598      2596      2599
      2573      2602      2603      2605      2603      2602      2605      2603      2604
      2602      2603      2604      2603      2605      2606      2603      2605      2607
      2603      2605      2608      2606      2605      2607      2606      2605      2608
      2607      2605      2608      2605      2608      2609      2605      2608      2610
      2605      2608      2611      2609      2608      2610      2609      2608      2611
      2610      2608      2611      2608      2611      2612      2608      2611      2613
      2608      2611      2614      2612      2611      2613      2612      2611      2614
      2613      2611      2614      2611      2614      2615      2611      2614      2616
      2611      2614      2617      2615      2614      2616      2615      2614      2617
      2616      2614      2617      2614      2617      2618      2614      2617      2619
      2614      2617      2620      2618      2617      2619      2618      2617      2620
      2619      2617      2620      2617      2620      2621      2617      2620      2622
      2617      2620      2623      2621      2620      2622      2621      2620      2623
      2622      2620      2623      2620      2623      2624      2620      2623      2625
      2620      2623      2626      2624      2623      2625      2624      2623      2626
      2625      2623      2626      2623      2626      2627      2623      2626      2628
      2627      2626      2628      2626      2628      2629      2626      2628      2630
      2629      2628      2630      2628      2630      2631      2628      2630      2632
      2628      2630      2633      2631      2630      2632      2631      2630      2633
      2632      2630      2633      2630      2633      2634      2630      2633      2635
      2630      2633      2636      2634      2633      2635      2634      2633      2636
      2635      2633      2636      2633      2636      2637      2633      2636      2638
      2633      2636      2639      2637      2636      2638      2637      2636      2639
      2638      2636      2639      2636      2639      2640      2636      2639      2641
      2636      2639      2642      2640      2639      2641      2640      2639      2642
      2641      2639      2642      2639      2642      2643      2639      2642      2644
      2639      2642      2645      2643      2642      2644      2643      2642      2645
      2644      2642      2645      2642      2645      2646      2642      2645      2647
      2642      2645      2648      2646      2645      2647      2646      2645      2648
      2647      2645      2648      2645      2648      2649      2645      2648      2650
      2645      2648      2651      2649      2648      2650      2649      2648      2651
      2650      2648      2651      2648      2651      2652      2648      2651      2653
      2648      2651      2654      2652      2651      2653      2652      2651      2654
      2653      2651      2654      2656      2655      2657      2656      2655      2658
      2656      2655      2659      2657      2655      2658      2657      2655      2659
      2658      2655      2659      2655      2659      2660      2655      2659      2661
      2655      2659      2662      2660      2659      2661      2660      2659      2662
      2661      2659      2662      2659      2662      2663      2659      2662      2664
      2659      2662      2665      2663      2662      2664      2663      2662      2665
      2664      2662      2665      2662      2665      2666      2662      2665      2667
      2662      2665      2668      2666      2665      2667      2666      2665      2668
      2667      2665      2668      2665      2668      2669      2665      2668      2670
      2665      2668      2671      2669      2668      2670      2669      2668      2671
      2670      2668      2671      2668      2671      2672      2668      2671      2673
      2668      2671      2674      2672      2671      2673      2672      2671      2674
      2673      2671      2674      2671      2674      2675      2671      2674      2676
      2671      2674      2677      2675      2674      2676      2675      2674      2677
      2676      2674      2677      2674      2677      2678      2674      2677      2679
      2674      2677      2680      2678      2677      2679      2678      2677      2680
      2679      2677      2680      2677      2680      2681      2677      2680      2682
      2677      2680      2683      2681      2680      2682      2681      2680      2683
      2682      2680      2683      2680      2683      2684      2680      2683      2685
      2680      2683      2686      2684      2683      2685      2684      2683      2686
      2685      2683      2686      2683      2686      2687      2683      2686      2688
      2683      2686      2689      2687      2686      2688      2687      2686      2689
      2688      2686      2689      2686      2689      2690      2686      2689      2691
      2686      2689      2692      2690      2689      2691      2690      2689      2692
      2691      2689      2692      2689      2692      2693      2689      2692      2694
      2689      2692      2695      2693      2692      2694      2693      2692      2695
      2694      2692      2695      2692      2695      2696      2692      2695      2697
      2692      2695      2698      2696      2695      2697      2696      2695      2698
      2697      2695      2698      2701      2698      2695      2701      2698      2699
      2701      2698      2700      2695      2698      2699      2695      2698      2700
      2699      2698      2700      2698      2701      2702      2698      2701      2703
      2702      2701      2703      2701      2703      2704      2703      2704      2705
      2703      2704      2706      2703      2704      2707      2705      2704      2706
      2705      2704      2707      2706      2704      2707      2704      2707      2708
      2704      2707      2709      2704      2707      2736      2708      2707      2709
      2708      2707      2736      2709      2707      2736      2707      2709      2710
      2707      2709      2711      2707      2709      2712      2710      2709      2711
      2710      2709      2712      2711      2709      2712      2709      2712      2713
      2712      2713      2714      2712      2713      2734      2712      2713      2735
      2714      2713      2734      2714      2713      2735      2734      2713      2735
      2713      2714      2715      2714      2715      2716      2714      2715      2717
      2714      2715      2718      2716      2715      2717      2716      2715      2718
      2717      2715      2718      2715      2718      2719      2715      2718      2720
      2715      2718      2721      2719      2718      2720      2719      2718      2721
      2720      2718      2721      2718      2721      2722      2718      2721      2726
      2718      2721      2730      2722      2721      2726      2722      2721      2730
      2726      2721      2730      2721      2722      2723      2721      2722      2724
      2721      2722      2725      2723      2722      2724      2723      2722      2725
      2724      2722      2725      2721      2726      2727      2721      2726      2728
      2721      2726      2729      2727      2726      2728      2727      2726      2729
      2728      2726      2729      2721      2730      2731      2721      2730      2732
      2721      2730      2733      2731      2730      2732      2731      2730      2733
      2732      2730      2733      2707      2736      2737      2739      2737      2736
      2739      2737      2738      2736      2737      2738      2737      2739      2740
      2737      2739      2741      2737      2739      2742      2740      2739      2741
      2740      2739      2742      2741      2739      2742      2739      2742      2743
      2739      2742      2744      2739      2742      2745      2743      2742      2744
      2743      2742      2745      2744      2742      2745      2742      2745      2746
      2742      2745      2747      2742      2745      2748      2746      2745      2747
      2746      2745      2748      2747      2745      2748      2745      2748      2749
      2745      2748      2750      2745      2748      2751      2749      2748      2750
      2749      2748      2751      2750      2748      2751      2748      2751      2752
      2748      2751      2753      2748      2751      2754      2752      2751      2753
      2752      2751      2754      2753      2751      2754      2751      2754      2755
      2751      2754      2756      2751      2754      2757      2755      2754      2756
      2755      2754      2757      2756      2754      2757      2754      2757      2758
      2754      2757      2759      2754      2757      2760      2758      2757      2759
      2758      2757      2760      2759      2757      2760      2757      2760      2761
      2757      2760      2762      2761      2760      2762      2760      2762      2763
      2760      2762      2764      2763      2762      2764      2762      2764      2765
      2762      2764      2766      2762      2764      2767      2765      2764      2766
      2765      2764      2767      2766      2764      2767      2764      2767      2768
      2764      2767      2769      2764      2767      2770      2768      2767      2769
      2768      2767      2770      2769      2767      2770      2767      2770      2771
      2767      2770      2772      2767      2770      2773      2771      2770      2772
      2771      2770      2773      2772      2770      2773      2770      2773      2774
      2770      2773      2775      2770      2773      2776      2774      2773      2775
      2774      2773      2776      2775      2773      2776      2773      2776      2777
      2773      2776      2778      2773      2776      2779      2777      2776      2778
      2777      2776      2779      2778      2776      2779      2776      2779      2780
      2776      2779      2781      2776      2779      2782      2780      2779      2781
      2780      2779      2782      2781      2779      2782      2779      2782      2783
      2779      2782      2784      2779      2782      2785      2783      2782      2784
      2783      2782      2785      2784      2782      2785      2782      2785      2786
      2782      2785      2787      2782      2785      2788      2786      2785      2787
      2786      2785      2788      2787      2785      2788      2790      2789      2791
      2790      2789      2792      2790      2789      2793      2791      2789      2792
      2791      2789      2793      2792      2789      2793      2789      2793      2794
      2789      2793      2795      2789      2793      2796      2794      2793      2795
      2794      2793      2796      2795      2793      2796      2793      2796      2797
      2793      2796      2798      2793      2796      2799      2797      2796      2798
      2797      2796      2799      2798      2796      2799      2796      2799      2800
      2796      2799      2801      2796      2799      2802      2800      2799      2801
      2800      2799      2802      2801      2799      2802      2799      2802      2803
      2799      2802      2804      2799      2802      2805      2803      2802      2804
      2803      2802      2805      2804      2802      2805      2802      2805      2806
      2802      2805      2807      2802      2805      2808      2806      2805      2807
      2806      2805      2808      2807      2805      2808      2805      2808      2809
      2805      2808      2810      2805      2808      2811      2809      2808      2810
      2809      2808      2811      2810      2808      2811      2808      2811      2812
      2808      2811      2813      2808      2811      2814      2812      2811      2813
      2812      2811      2814      2813      2811      2814      2811      2814      2815
      2811      2814      2816      2811      2814      2817      2815      2814      2816
      2815      2814      2817      2816      2814      2817      2814      2817      2818
      2814      2817      2819      2814      2817      2820      2818      2817      2819
      2818      2817      2820      2819      2817      2820      2817      2820      2821
      2817      2820      2822      2817      2820      2823      2821      2820      2822
      2821      2820      2823      2822      2820      2823      2820      2823      2824
      2820      2823      2825      2820      2823      2826      2824      2823      2825
      2824      2823      2826      2825      2823      2826      2823      2826      2827
      2823      2826      2828      2823      2826      2829      2827      2826      2828
      2827      2826      2829      2828      2826      2829      2826      2829      2830
      2826      2829      2831      2826      2829      2832      2830      2829      2831
      2830      2829      2832      2831      2829      2832      2835      2832      2829
      2835      2832      2833      2835      2832      2834      2829      2832      2833
      2829      2832      2834      2833      2832      2834      2832      2835      2836
      2832      2835      2837      2836      2835      2837      2835      2837      2838
      2837      2838      2839      2837      2838      2840      2837      2838      2841
      2839      2838      2840      2839      2838      2841      2840      2838      2841
      2838      2841      2842      2838      2841      2843      2838      2841      2870
      2842      2841      2843      2842      2841      2870      2843      2841      2870
      2841      2843      2844      2841      2843      2845      2841      2843      2846
      2844      2843      2845      2844      2843      2846      2845      2843      2846
      2843      2846      2847      2846      2847      2848      2846      2847      2868
      2846      2847      2869      2848      2847      2868      2848      2847      2869
      2868      2847      2869      2847      2848      2849      2848      2849      2850
      2848      2849      2851      2848      2849      2852      2850      2849      2851
      2850      2849      2852      2851      2849      2852      2849      2852      2853
      2849      2852      2854      2849      2852      2855      2853      2852      2854
      2853      2852      2855      2854      2852      2855      2852      2855      2856
      2852      2855      2860      2852      2855      2864      2856      2855      2860
      2856      2855      2864      2860      2855      2864      2855      2856      2857
      2855      2856      2858      2855      2856      2859      2857      2856      2858
      2857      2856      2859      2858      2856      2859      2855      2860      2861
      2855      2860      2862      2855      2860      2863      2861      2860      2862
      2861      2860      2863      2862      2860      2863      2855      2864      2865
      2855      2864      2866      2855      2864      2867      2865      2864      2866
      2865      2864      2867      2866      2864      2867      2841      2870      2871
      2873      2871      2870      2873      2871      2872      2870      2871      2872
      2871      2873      2874      2871      2873      2875      2871      2873      2876
      2874      2873      2875      2874      2873      2876      2875      2873      2876
      2873      2876      2877      2873      2876      2878      2873      2876      2879
      2877      2876      2878      2877      2876      2879      2878      2876      2879
      2876      2879      2880      2876      2879      2881      2876      2879      2882
      2880      2879      2881      2880      2879      2882      2881      2879      2882
      2879      2882      2883      2879      2882      2884      2879      2882      2885
      2883      2882      2884      2883      2882      2885      2884      2882      2885
      2882      2885      2886      2882      2885      2887      2882      2885      2888
      2886      2885      2887      2886      2885      2888      2887      2885      2888
      2885      2888      2889      2885      2888      2890      2885      2888      2891
      2889      2888      2890      2889      2888      2891      2890      2888      2891
      2888      2891      2892      2888      2891      2893      2888      2891      2894
      2892      2891      2893      2892      2891      2894      2893      2891      2894
      2891      2894      2895      2891      2894      2896      2895      2894      2896
      2894      2896      2897      2894      2896      2898      2897      2896      2898
      2896      2898      2899      2896      2898      2900      2896      2898      2901
      2899      2898      2900      2899      2898      2901      2900      2898      2901
      2898      2901      2902      2898      2901      2903      2898      2901      2904
      2902      2901      2903      2902      2901      2904      2903      2901      2904
      2901      2904      2905      2901      2904      2906      2901      2904      2907
      2905      2904      2906      2905      2904      2907      2906      2904      2907
      2904      2907      2908      2904      2907      2909      2904      2907      2910
      2908      2907      2909      2908      2907      2910      2909      2907      2910
      2907      2910      2911      2907      2910      2912      2907      2910      2913
      2911      2910      2912      2911      2910      2913      2912      2910      2913
      2910      2913      2914      2910      2913      2915      2910      2913      2916
      2914      2913      2915      2914      2913      2916      2915      2913      2916
      2913      2916      2917      2913      2916      2918      2913      2916      2919
      2917      2916      2918      2917      2916      2919      2918      2916      2919
      2916      2919      2920      2916      2919      2921      2916      2919      2922
      2920      2919      2921      2920      2919      2922      2921      2919      2922
      2924      2923      2925      2924      2923      2926      2924      2923      2927
      2925      2923      2926      2925      2923      2927      2926      2923      2927
      2923      2927      2928      2923      2927      2929      2923      2927      2930
      2928      2927      2929      2928      2927      2930      2929      2927      2930
      2927      2930      2931      2927      2930      2932      2927      2930      2933
      2931      2930      2932      2931      2930      2933      2932      2930      2933
      2930      2933      2934      2930      2933      2935      2930      2933      2936
      2934      2933      2935      2934      2933      2936      2935      2933      2936
      2933      2936      2937      2933      2936      2938      2933      2936      2939
      2937      2936      2938      2937      2936      2939      2938      2936      2939
      2936      2939      2940      2936      2939      2941      2936      2939      2942
      2940      2939      2941      2940      2939      2942      2941      2939      2942
      2939      2942      2943      2939      2942      2944      2939      2942      2945
      2943      2942      2944      2943      2942      2945      2944      2942      2945
      2942      2945      2946      2942      2945      2947      2942      2945      2948
      2946      2945      2947      2946      2945      2948      2947      2945      2948
      2945      2948      2949      2945      2948      2950      2945      2948      2951
      2949      2948      2950      2949      2948      2951      2950      2948      2951
      2948      2951      2952      2948      2951      2953      2948      2951      2954
      2952      2951      2953      2952      2951      2954      2953      2951      2954
      2951      2954      2955      2951      2954      2956      2951      2954      2957
      2955      2954      2956      2955      2954      2957      2956      2954      2957
      2954      2957      2958      2954      2957      2959      2954      2957      2960
      2958      2957      2959      2958      2957      2960      2959      2957      2960
      2957      2960      2961      2957      2960      2962      2957      2960      2963
      2961      2960      2962      2961      2960      2963      2962      2960      2963
      2960      2963      2964      2960      2963      2965      2960      2963      2966
      2964      2963      2965      2964      2963      2966      2965      2963      2966
      2969      2966      2963      2969      2966      2967      2969      2966      2968
      2963      2966      2967      2963      2966      2968      2967      2966      2968
      2966      2969      2970      2966      2969      2971      2970      2969      2971
      2969      2971      2972      2971      2972      2973      2971      2972      2974
      2971      2972      2975      2973      2972      2974      2973      2972      2975
      2974      2972      2975      2972      2975      2976      2972      2975      2977
      2972      2975      3004      2976      2975      2977      2976      2975      3004
      2977      2975      3004      2975      2977      2978      2975      2977      2979
      2975      2977      2980      2978      2977      2979      2978      2977      2980
      2979      2977      2980      2977      2980      2981      2980      2981      2982
      2980      2981      3002      2980      2981      3003      2982      2981      3002
      2982      2981      3003      3002      2981      3003      2981      2982      2983
      2982      2983      2984      2982      2983      2985      2982      2983      2986
      2984      2983      2985      2984      2983      2986      2985      2983      2986
      2983      2986      2987      2983      2986      2988      2983      2986      2989
      2987      2986      2988      2987      2986      2989      2988      2986      2989
      2986      2989      2990      2986      2989      2994      2986      2989      2998
      2990      2989      2994      2990      2989      2998      2994      2989      2998
      2989      2990      2991      2989      2990      2992      2989      2990      2993
      2991      2990      2992      2991      2990      2993      2992      2990      2993
      2989      2994      2995      2989      2994      2996      2989      2994      2997
      2995      2994      2996      2995      2994      2997      2996      2994      2997
      2989      2998      2999      2989      2998      3000      2989      2998      3001
      2999      2998      3000      2999      2998      3001      3000      2998      3001
      2975      3004      3005      3007      3005      3004      3007      3005      3006
      3004      3005      3006      3005      3007      3008      3005      3007      3009
      3005      3007      3010      3008      3007      3009      3008      3007      3010
      3009      3007      3010      3007      3010      3011      3007      3010      3012
      3007      3010      3013      3011      3010      3012      3011      3010      3013
      3012      3010      3013      3010      3013      3014      3010      3013      3015
      3010      3013      3016      3014      3013      3015      3014      3013      3016
      3015      3013      3016      3013      3016      3017      3013      3016      3018
      3013      3016      3019      3017      3016      3018      3017      3016      3019
      3018      3016      3019      3016      3019      3020      3016      3019      3021
      3016      3019      3022      3020      3019      3021      3020      3019      3022
      3021      3019      3022      3019      3022      3023      3019      3022      3024
      3019      3022      3025      3023      3022      3024      3023      3022      3025
      3024      3022      3025      3022      3025      3026      3022      3025      3027
      3022      3025      3028      3026      3025      3027      3026      3025      3028
      3027      3025      3028      3025      3028      3029      3025      3028      3030
      3029      3028      3030      3028      3030      3031      3028      3030      3032
      3031      3030      3032      3030      3032      3033      3030      3032      3034
      3030      3032      3035      3033      3032      3034      3033      3032      3035
      3034      3032      3035      3032      3035      3036      3032      3035      3037
      3032      3035      3038      3036      3035      3037      3036      3035      3038
      3037      3035      3038      3035      3038      3039      3035      3038      3040
      3035      3038      3041      3039      3038      3040      3039      3038      3041
      3040      3038      3041      3038      3041      3042      3038      3041      3043
      3038      3041      3044      3042      3041      3043      3042      3041      3044
      3043      3041      3044      3041      3044      3045      3041      3044      3046
      3041      3044      3047      3045      3044      3046      3045      3044      3047
      3046      3044      3047      3044      3047      3048      3044      3047      3049
      3044      3047      3050      3048      3047      3049      3048      3047      3050
      3049      3047      3050      3047      3050      3051      3047      3050      3052
      3047      3050      3053      3051      3050      3052      3051      3050      3053
      3052      3050      3053      3050      3053      3054      3050      3053      3055
      3050      3053      3056      3054      3053      3055      3054      3053      3056
      3055      3053      3056      3058      3057      3059      3058      3057      3060
      3058      3057      3061      3059      3057      3060      3059      3057      3061
      3060      3057      3061      3057      3061      3062      3057      3061      3063
      3057      3061      3064      3062      3061      3063      3062      3061      3064
      3063      3061      3064      3061      3064      3065      3061      3064      3066
      3061      3064      3067      3065      3064      3066      3065      3064      3067
      3066      3064      3067      3064      3067      3068      3064      3067      3069
      3064      3067      3070      3068      3067      3069      3068      3067      3070
      3069      3067      3070      3067      3070      3071      3067      3070      3072
      3067      3070      3073      3071      3070      3072      3071      3070      3073
      3072      3070      3073      3070      3073      3074      3070      3073      3075
      3070      3073      3076      3074      3073      3075      3074      3073      3076
      3075      3073      3076      3073      3076      3077      3073      3076      3078
      3073      3076      3079      3077      3076      3078      3077      3076      3079
      3078      3076      3079      3076      3079      3080      3076      3079      3081
      3076      3079      3082      3080      3079      3081      3080      3079      3082
      3081      3079      3082      3079      3082      3083      3079      3082      3084
      3079      3082      3085      3083      3082      3084      3083      3082      3085
      3084      3082      3085      3082      3085      3086      3082      3085      3087
      3082      3085      3088      3086      3085      3087      3086      3085      3088
      3087      3085      3088      3085      3088      3089      3085      3088      3090
      3085      3088      3091      3089      3088      3090      3089      3088      3091
      3090      3088      3091      3088      3091      3092      3088      3091      3093
      3088      3091      3094      3092      3091      3093      3092      3091      3094
      3093      3091      3094      3091      3094      3095      3091      3094      3096
      3091      3094      3097      3095      3094      3096      3095      3094      3097
      3096      3094      3097      3094      3097      3098      3094      3097      3099
      3094      3097      3100      3098      3097      3099      3098      3097      3100
      3099      3097      3100      3103      3100      3097      3103      3100      3101
      3103      3100      3102      3097      3100      3101      3097      3100      3102
      3101      3100      3102      3100      3103      3104      3100      3103      3105
      3104      3103      3105      3103      3105      3106      3105      3106      3107
      3105      3106      3108      3105      3106      3109      3107      3106      3108
      3107      3106      3109      3108      3106      3109      3106      3109      3110
      3106      3109      3111      3106      3109      3138      3110      3109      3111
      3110      3109      3138      3111      3109      3138      3109      3111      3112
      3109      3111      3113      3109      3111      3114      3112      3111      3113
      3112      3111      3114      3113      3111      3114      3111      3114      3115
      3114      3115      3116      3114      3115      3136      3114      3115      3137
      3116      3115      3136      3116      3115      3137      3136      3115      3137
      3115      3116      3117      3116      3117      3118      3116      3117      3119
      3116      3117      3120      3118      3117      3119      3118      3117      3120
      3119      3117      3120      3117      3120      3121      3117      3120      3122
      3117      3120      3123      3121      3120      3122      3121      3120      3123
      3122      3120      3123      3120      3123      3124      3120      3123      3128
      3120      3123      3132      3124      3123      3128      3124      3123      3132
      3128      3123      3132      3123      3124      3125      3123      3124      3126
      3123      3124      3127      3125      3124      3126      3125      3124      3127
      3126      3124      3127      3123      3128      3129      3123      3128      3130
      3123      3128      3131      3129      3128      3130      3129      3128      3131
      3130      3128      3131      3123      3132      3133      3123      3132      3134
      3123      3132      3135      3133      3132      3134      3133      3132      3135
      3134      3132      3135      3109      3138      3139      3141      3139      3138
      3141      3139      3140      3138      3139      3140      3139      3141      3142
      3139      3141      3143      3139      3141      3144      3142      3141      3143
      3142      3141      3144      3143      3141      3144      3141      3144      3145
      3141      3144      3146      3141      3144      3147      3145      3144      3146
      3145      3144      3147      3146      3144      3147      3144      3147      3148
      3144      3147      3149      3144      3147      3150      3148      3147      3149
      3148      3147      3150      3149      3147      3150      3147      3150      3151
      3147      3150      3152      3147      3150      3153      3151      3150      3152
      3151      3150      3153      3152      3150      3153      3150      3153      3154
      3150      3153      3155      3150      3153      3156      3154      3153      3155
      3154      3153      3156      3155      3153      3156      3153      3156      3157
      3153      3156      3158      3153      3156      3159      3157      3156      3158
      3157      3156      3159      3158      3156      3159      3156      3159      3160
      3156      3159      3161      3156      3159      3162      3160      3159      3161
      3160      3159      3162      3161      3159      3162      3159      3162      3163
      3159      3162      3164      3163      3162      3164      3162      3164      3165
      3162      3164      3166      3165      3164      3166      3164      3166      3167
      3164      3166      3168      3164      3166      3169      3167      3166      3168
      3167      3166      3169      3168      3166      3169      3166      3169      3170
      3166      3169      3171      3166      3169      3172      3170      3169      3171
      3170      3169      3172      3171      3169      3172      3169      3172      3173
      3169      3172      3174      3169      3172      3175      3173      3172      3174
      3173      3172      3175      3174      3172      3175      3172      3175      3176
      3172      3175      3177      3172      3175      3178      3176      3175      3177
      3176      3175      3178      3177      3175      3178      3175      3178      3179
      3175      3178      3180      3175      3178      3181      3179      3178      3180
      3179      3178      3181      3180      3178      3181      3178      3181      3182
      3178      3181      3183      3178      3181      3184      3182      3181      3183
      3182      3181      3184      3183      3181      3184      3181      3184      3185
      3181      3184      3186      3181      3184      3187      3185      3184      3186
      3185      3184      3187      3186      3184      3187      3184      3187      3188
      3184      3187      3189      3184      3187      3190      3188      3187      3189
      3188      3187      3190      3189      3187      3190      3192      3191      3193
      3192      3191      3194      3192      3191      3195      3193      3191      3194
      3193      3191      3195      3194      3191      3195      3191      3195      3196
      3191      3195      3197      3191      3195      3198      3196      3195      3197
      3196      3195      3198      3197      3195      3198      3195      3198      3199
      3195      3198      3200      3195      3198      3201      3199      3198      3200
      3199      3198      3201      3200      3198      3201      3198      3201      3202
      3198      3201      3203      3198      3201      3204      3202      3201      3203
      3202      3201      3204      3203      3201      3204      3201      3204      3205
      3201      3204      3206      3201      3204      3207      3205      3204      3206
      3205      3204      3207      3206      3204      3207      3204      3207      3208
      3204      3207      3209      3204      3207      3210      3208      3207      3209
      3208      3207      3210      3209      3207      3210      3207      3210      3211
      3207      3210      3212      3207      3210      3213      3211      3210      3212
      3211      3210      3213      3212      3210      3213      3210      3213      3214
      3210      3213      3215      3210      3213      3216      3214      3213      3215
      3214      3213      3216      3215      3213      3216      3213      3216      3217
      3213      3216      3218      3213      3216      3219      3217      3216      3218
      3217      3216      3219      3218      3216      3219      3216      3219      3220
      3216      3219      3221      3216      3219      3222      3220      3219      3221
      3220      3219      3222      3221      3219      3222      3219      3222      3223
      3219      3222      3224      3219      3222      3225      3223      3222      3224
      3223      3222      3225      3224      3222      3225      3222      3225      3226
      3222      3225      3227      3222      3225      3228      3226      3225      3227
      3226      3225      3228      3227      3225      3228      3225      3228      3229
      3225      3228      3230      3225      3228      3231      3229      3228      3230
      3229      3228      3231      3230      3228      3231      3228      3231      3232
      3228      3231      3233      3228      3231      3234      3232      3231      3233
      3232      3231      3234      3233      3231      3234      3237      3234      3231
      3237      3234      3235      3237      3234      3236      3231      3234      3235
      3231      3234      3236      3235      3234      3236      3234      3237      3238
      3234      3237      3239      3238      3237      3239      3237      3239      3240
      3239      3240      3241      3239      3240      3242      3239      3240      3243
      3241      3240      3242      3241      3240      3243      3242      3240      3243
      3240      3243      3244      3240      3243      3245      3240      3243      3272
      3244      3243      3245      3244      3243      3272      3245      3243      3272
      3243      3245      3246      3243      3245      3247      3243      3245      3248
      3246      3245      3247      3246      3245      3248      3247      3245      3248
      3245      3248      3249      3248      3249      3250      3248      3249      3270
      3248      3249      3271      3250      3249      3270      3250      3249      3271
      3270      3249      3271      3249      3250      3251      3250      3251      3252
      3250      3251      3253      3250      3251      3254      3252      3251      3253
      3252      3251      3254      3253      3251      3254      3251      3254      3255
      3251      3254      3256      3251      3254      3257      3255      3254      3256
      3255      3254      3257      3256      3254      3257      3254      3257      3258
      3254      3257      3262      3254      3257      3266      3258      3257      3262
      3258      3257      3266      3262      3257      3266      3257      3258      3259
      3257      3258      3260      3257      3258      3261      3259      3258      3260
      3259      3258      3261      3260      3258      3261      3257      3262      3263
      3257      3262      3264      3257      3262      3265      3263      3262      3264
      3263      3262      3265      3264      3262      3265      3257      3266      3267
      3257      3266      3268      3257      3266      3269      3267      3266      3268
      3267      3266      3269      3268      3266      3269      3243      3272      3273
      3275      3273      3272      3275      3273      3274      3272      3273      3274
      3273      3275      3276      3273      3275      3277      3273      3275      3278
      3276      3275      3277      3276      3275      3278      3277      3275      3278
      3275      3278      3279      3275      3278      3280      3275      3278      3281
      3279      3278      3280      3279      3278      3281      3280      3278      3281
      3278      3281      3282      3278      3281      3283      3278      3281      3284
      3282      3281      3283      3282      3281      3284      3283      3281      3284
      3281      3284      3285      3281      3284      3286      3281      3284      3287
      3285      3284      3286      3285      3284      3287      3286      3284      3287
      3284      3287      3288      3284      3287      3289      3284      3287      3290
      3288      3287      3289      3288      3287      3290      3289      3287      3290
      3287      3290      3291      3287      3290      3292      3287      3290      3293
      3291      3290      3292      3291      3290      3293      3292      3290      3293
      3290      3293      3294      3290      3293      3295      3290      3293      3296
      3294      3293      3295      3294      3293      3296      3295      3293      3296
      3293      3296      3297      3293      3296      3298      3297      3296      3298
      3296      3298      3299      3296      3298      3300      3299      3298      3300
      3298      3300      3301      3298      3300      3302      3298      3300      3303
      3301      3300      3302      3301      3300      3303      3302      3300      3303
      3300      3303      3304      3300      3303      3305      3300      3303      3306
      3304      3303      3305      3304      3303      3306      3305      3303      3306
      3303      3306      3307      3303      3306      3308      3303      3306      3309
      3307      3306      3308      3307      3306      3309      3308      3306      3309
      3306      3309      3310      3306      3309      3311      3306      3309      3312
      3310      3309      3311      3310      3309      3312      3311      3309      3312
      3309      3312      3313      3309      3312      3314      3309      3312      3315
      3313      3312      3314      3313      3312      3315      3314      3312      3315
      3312      3315      3316      3312      3315      3317      3312      3315      3318
      3316      3315      3317      3316      3315      3318      3317      3315      3318
      3315      3318      3319      3315      3318      3320      3315      3318      3321
      3319      3318      3320      3319      3318      3321      3320      3318      3321
      3318      3321      3322      3318      3321      3323      3318      3321      3324
      3322      3321      3323      3322      3321      3324      3323      3321      3324
      3326      3325      3327      3326      3325      3328      3326      3325      3329
      3327      3325      3328      3327      3325      3329      3328      3325      3329
      3325      3329      3330      3325      3329      3331      3325      3329      3332
      3330      3329      3331      3330      3329      3332      3331      3329      3332
      3329      3332      3333      3329      3332      3334      3329      3332      3335
      3333      3332      3334      3333      3332      3335      3334      3332      3335
      3332      3335      3336      3332      3335      3337      3332      3335      3338
      3336      3335      3337      3336      3335      3338      3337      3335      3338
      3335      3338      3339      3335      3338      3340      3335      3338      3341
      3339      3338      3340      3339      3338      3341      3340      3338      3341
      3338      3341      3342      3338      3341      3343      3338      3341      3344
      3342      3341      3343      3342      3341      3344      3343      3341      3344
      3341      3344      3345      3341      3344      3346      3341      3344      3347
      3345      3344      3346      3345      3344      3347      3346      3344      3347
      3344      3347      3348      3344      3347      3349      3344      3347      3350
      3348      3347      3349      3348      3347      3350      3349      3347      3350
      3347      3350      3351      3347      3350      3352      3347      3350      3353
      3351      3350      3352      3351      3350      3353      3352      3350      3353
      3350      3353      3354      3350      3353      3355      3350      3353      3356
      3354      3353      3355      3354      3353      3356      3355      3353      3356
      3353      3356      3357      3353      3356      3358      3353      3356      3359
      3357      3356      3358      3357      3356      3359      3358      3356      3359
      3356      3359      3360      3356      3359      3361      3356      3359      3362
      3360      3359      3361      3360      3359      3362      3361      3359      3362
      3359      3362      3363      3359      3362      3364      3359      3362      3365
      3363      3362      3364      3363      3362      3365      3364      3362      3365
      3362      3365      3366      3362      3365      3367      3362      3365      3368
      3366      3365      3367      3366      3365      3368      3367      3365      3368
      3371      3368      3365      3371      3368      3369      3371      3368      3370
      3365      3368      3369      3365      3368      3370      3369      3368      3370
      3368      3371      3372      3368      3371      3373      3372      3371      3373
      3371      3373      3374      3373      3374      3375      3373      3374      3376
      3373      3374      3377      3375      3374      3376      3375      3374      3377
      3376      3374      3377      3374      3377      3378      3374      3377      3379
      3374      3377      3406      3378      3377      3379      3378      3377      3406
      3379      3377      3406      3377      3379      3380      3377      3379      3381
      3377      3379      3382      3380      3379      3381      3380      3379      3382
      3381      3379      3382      3379      3382      3383      3382      3383      3384
      3382      3383      3404      3382      3383      3405      3384      3383      3404
      3384      3383      3405      3404      3383      3405      3383      3384      3385
      3384      3385      3386      3384      3385      3387      3384      3385      3388
      3386      3385      3387      3386      3385      3388      3387      3385      3388
      3385      3388      3389      3385      3388      3390      3385      3388      3391
      3389      3388      3390      3389      3388      3391      3390      3388      3391
      3388      3391      3392      3388      3391      3396      3388      3391      3400
      3392      3391      3396      3392      3391      3400      3396      3391      3400
      3391      3392      3393      3391      3392      3394      3391      3392      3395
      3393      3392      3394      3393      3392      3395      3394      3392      3395
      3391      3396      3397      3391      3396      3398      3391      3396      3399
      3397      3396      3398      3397      3396      3399      3398      3396      3399
      3391      3400      3401      3391      3400      3402      3391      3400      3403
      3401      3400      3402      3401      3400      3403      3402      3400      3403
      3377      3406      3407      3409      3407      3406      3409      3407      3408
      3406      3407      3408      3407      3409      3410      3407      3409      3411
      3407      3409      3412      3410      3409      3411      3410      3409      3412
      3411      3409      3412      3409      3412      3413      3409      3412      3414
      3409      3412      3415      3413      3412      3414      3413      3412      3415
      3414      3412      3415      3412      3415      3416      3412      3415      3417
      3412      3415      3418      3416      3415      3417      3416      3415      3418
      3417      3415      3418      3415      3418      3419      3415      3418      3420
      3415      3418      3421      3419      3418      3420      3419      3418      3421
      3420      3418      3421      3418      3421      3422      3418      3421      3423
      3418      3421      3424      3422      3421      3423      3422      3421      3424
      3423      3421      3424      3421      3424      3425      3421      3424      3426
      3421      3424      3427      3425      3424      3426      3425      3424      3427
      3426      3424      3427      3424      3427      3428      3424      3427      3429
      3424      3427      3430      3428      3427      3429      3428      3427      3430
      3429      3427      3430      3427      3430      3431      3427      3430      3432
      3431      3430      3432      3430      3432      3433      3430      3432      3434
      3433      3432      3434      3432      3434      3435      3432      3434      3436
      3432      3434      3437      3435      3434      3436      3435      3434      3437
      3436      3434      3437      3434      3437      3438      3434      3437      3439
      3434      3437      3440      3438      3437      3439      3438      3437      3440
      3439      3437      3440      3437      3440      3441      3437      3440      3442
      3437      3440      3443      3441      3440      3442      3441      3440      3443
      3442      3440      3443      3440      3443      3444      3440      3443      3445
      3440      3443      3446      3444      3443      3445      3444      3443      3446
      3445      3443      3446      3443      3446      3447      3443      3446      3448
      3443      3446      3449      3447      3446      3448      3447      3446      3449
      3448      3446      3449      3446      3449      3450      3446      3449      3451
      3446      3449      3452      3450      3449      3451      3450      3449      3452
      3451      3449      3452      3449      3452      3453      3449      3452      3454
      3449      3452      3455      3453      3452      3454      3453      3452      3455
      3454      3452      3455      3452      3455      3456      3452      3455      3457
      3452      3455      3458      3456      3455      3457      3456      3455      3458
      3457      3455      3458      3460      3459      3461      3460      3459      3462
      3460      3459      3463      3461      3459      3462      3461      3459      3463
      3462      3459      3463      3459      3463      3464      3459      3463      3465
      3459      3463      3466      3464      3463      3465      3464      3463      3466
      3465      3463      3466      3463      3466      3467      3463      3466      3468
      3463      3466      3469      3467      3466      3468      3467      3466      3469
      3468      3466      3469      3466      3469      3470      3466      3469      3471
      3466      3469      3472      3470      3469      3471      3470      3469      3472
      3471      3469      3472      3469      3472      3473      3469      3472      3474
      3469      3472      3475      3473      3472      3474      3473      3472      3475
      3474      3472      3475      3472      3475      3476      3472      3475      3477
      3472      3475      3478      3476      3475      3477      3476      3475      3478
      3477      3475      3478      3475      3478      3479      3475      3478      3480
      3475      3478      3481      3479      3478      3480      3479      3478      3481
      3480      3478      3481      3478      3481      3482      3478      3481      3483
      3478      3481      3484      3482      3481      3483      3482      3481      3484
      3483      3481      3484      3481      3484      3485      3481      3484      3486
      3481      3484      3487      3485      3484      3486      3485      3484      3487
      3486      3484      3487      3484      3487      3488      3484      3487      3489
      3484      3487      3490      3488      3487      3489      3488      3487      3490
      3489      3487      3490      3487      3490      3491      3487      3490      3492
      3487      3490      3493      3491      3490      3492      3491      3490      3493
      3492      3490      3493      3490      3493      3494      3490      3493      3495
      3490      3493      3496      3494      3493      3495      3494      3493      3496
      3495      3493      3496      3493      3496      3497      3493      3496      3498
      3493      3496      3499      3497      3496      3498      3497      3496      3499
      3498      3496      3499      3496      3499      3500      3496      3499      3501
      3496      3499      3502      3500      3499      3501      3500      3499      3502
      3501      3499      3502      3505      3502      3499      3505      3502      3503
      3505      3502      3504      3499      3502      3503      3499      3502      3504
      3503      3502      3504      3502      3505      3506      3502      3505      3507
      3506      3505      3507      3505      3507      3508      3507      3508      3509
      3507      3508      3510      3507      3508      3511      3509      3508      3510
      3509      3508      3511      3510      3508      3511      3508      3511      3512
      3508      3511      3513      3508      3511      3540      3512      3511      3513
      3512      3511      3540      3513      3511      3540      3511      3513      3514
      3511      3513      3515      3511      3513      3516      3514      3513      3515
      3514      3513      3516      3515      3513      3516      3513      3516      3517
      3516      3517      3518      3516      3517      3538      3516      3517      3539
      3518      3517      3538      3518      3517      3539      3538      3517      3539
      3517      3518      3519      3518      3519      3520      3518      3519      3521
      3518      3519      3522      3520      3519      3521      3520      3519      3522
      3521      3519      3522      3519      3522      3523      3519      3522      3524
      3519      3522      3525      3523      3522      3524      3523      3522      3525
      3524      3522      3525      3522      3525      3526      3522      3525      3530
      3522      3525      3534      3526      3525      3530      3526      3525      3534
      3530      3525      3534      3525      3526      3527      3525      3526      3528
      3525      3526      3529      3527      3526      3528      3527      3526      3529
      3528      3526      3529      3525      3530      3531      3525      3530      3532
      3525      3530      3533      3531      3530      3532      3531      3530      3533
      3532      3530      3533      3525      3534      3535      3525      3534      3536
      3525      3534      3537      3535      3534      3536      3535      3534      3537
      3536      3534      3537      3511      3540      3541      3543      3541      3540
      3543      3541      3542      3540      3541      3542      3541      3543      3544
      3541      3543      3545      3541      3543      3546      3544      3543      3545
      3544      3543      3546      3545      3543      3546      3543      3546      3547
      3543      3546      3548      3543      3546      3549      3547      3546      3548
      3547      3546      3549      3548      3546      3549      3546      3549      3550
      3546      3549      3551      3546      3549      3552      3550      3549      3551
      3550      3549      3552      3551      3549      3552      3549      3552      3553
      3549      3552      3554      3549      3552      3555      3553      3552      3554
      3553      3552      3555      3554      3552      3555      3552      3555      3556
      3552      3555      3557      3552      3555      3558      3556      3555      3557
      3556      3555      3558      3557      3555      3558      3555      3558      3559
      3555      3558      3560      3555      3558      3561      3559      3558      3560
      3559      3558      3561      3560      3558      3561      3558      3561      3562
      3558      3561      3563      3558      3561      3564      3562      3561      3563
      3562      3561      3564      3563      3561      3564      3561      3564      3565
      3561      3564      3566      3565      3564      3566      3564      3566      3567
      3564      3566      3568      3567      3566      3568      3566      3568      3569
      3566      3568      3570      3566      3568      3571      3569      3568      3570
      3569      3568      3571      3570      3568      3571      3568      3571      3572
      3568      3571      3573      3568      3571      3574      3572      3571      3573
      3572      3571      3574      3573      3571      3574      3571      3574      3575
      3571      3574      3576      3571      3574      3577      3575      3574      3576
      3575      3574      3577      3576      3574      3577      3574      3577      3578
      3574      3577      3579      3574      3577      3580      3578      3577      3579
      3578      3577      3580      3579      3577      3580      3577      3580      3581
      3577      3580      3582      3577      3580      3583      3581      3580      3582
      3581      3580      3583      3582      3580      3583      3580      3583      3584
      3580      3583      3585      3580      3583      3586      3584      3583      3585
      3584      3583      3586      3585      3583      3586      3583      3586      3587
      3583      3586      3588      3583      3586      3589      3587      3586      3588
      3587      3586      3589      3588      3586      3589      3586      3589      3590
      3586      3589      3591      3586      3589      3592      3590      3589      3591
      3590      3589      3592      3591      3589      3592      3594      3593      3595
      3594      3593      3596      3594      3593      3597      3595      3593      3596
      3595      3593      3597      3596      3593      3597      3593      3597      3598
      3593      3597      3599      3593      3597      3600      3598      3597      3599
      3598      3597      3600      3599      3597      3600      3597      3600      3601
      3597      3600      3602      3597      3600      3603      3601      3600      3602
      3601      3600      3603      3602      3600      3603      3600      3603      3604
      3600      3603      3605      3600      3603      3606      3604      3603      3605
      3604      3603      3606      3605      3603      3606      3603      3606      3607
      3603      3606      3608      3603      3606      3609      3607      3606      3608
      3607      3606      3609      3608      3606      3609      3606      3609      3610
      3606      3609      3611      3606      3609      3612      3610      3609      3611
      3610      3609      3612      3611      3609      3612      3609      3612      3613
      3609      3612      3614      3609      3612      3615      3613      3612      3614
      3613      3612      3615      3614      3612      3615      3612      3615      3616
      3612      3615      3617      3612      3615      3618      3616      3615      3617
      3616      3615      3618      3617      3615      3618      3615      3618      3619
      3615      3618      3620      3615      3618      3621      3619      3618      3620
      3619      3618      3621      3620      3618      3621      3618      3621      3622
      3618      3621      3623      3618      3621      3624      3622      3621      3623
      3622      3621      3624      3623      3621      3624      3621      3624      3625
      3621      3624      3626      3621      3624      3627      3625      3624      3626
      3625      3624      3627      3626      3624      3627      3624      3627      3628
      3624      3627      3629      3624      3627      3630      3628      3627      3629
      3628      3627      3630      3629      3627      3630      3627      3630      3631
      3627      3630      3632      3627      3630      3633      3631      3630      3632
      3631      3630      3633      3632      3630      3633      3630      3633      3634
      3630      3633      3635      3630      3633      3636      3634      3633      3635
      3634      3633      3636      3635      3633      3636      3639      3636      3633
      3639      3636      3637      3639      3636      3638      3633      3636      3637
      3633      3636      3638      3637      3636      3638      3636      3639      3640
      3636      3639      3641      3640      3639      3641      3639      3641      3642
      3641      3642      3643      3641      3642      3644      3641      3642      3645
      3643      3642      3644      3643      3642      3645      3644      3642      3645
      3642      3645      3646      3642      3645      3647      3642      3645      3674
      3646      3645      3647      3646      3645      3674      3647      3645      3674
      3645      3647      3648      3645      3647      3649      3645      3647      3650
      3648      3647      3649      3648      3647      3650      3649      3647      3650
      3647      3650      3651      3650      3651      3652      3650      3651      3672
      3650      3651      3673      3652      3651      3672      3652      3651      3673
      3672      3651      3673      3651      3652      3653      3652      3653      3654
      3652      3653      3655      3652      3653      3656      3654      3653      3655
      3654      3653      3656      3655      3653      3656      3653      3656      3657
      3653      3656      3658      3653      3656      3659      3657      3656      3658
      3657      3656      3659      3658      3656      3659      3656      3659      3660
      3656      3659      3664      3656      3659      3668      3660      3659      3664
      3660      3659      3668      3664      3659      3668      3659      3660      3661
      3659      3660      3662      3659      3660      3663      3661      3660      3662
      3661      3660      3663      3662      3660      3663      3659      3664      3665
      3659      3664      3666      3659      3664      3667      3665      3664      3666
      3665      3664      3667      3666      3664      3667      3659      3668      3669
      3659      3668      3670      3659      3668      3671      3669      3668      3670
      3669      3668      3671      3670      3668      3671      3645      3674      3675
      3677      3675      3674      3677      3675      3676      3674      3675      3676
      3675      3677      3678      3675      3677      3679      3675      3677      3680
      3678      3677      3679      3678      3677      3680      3679      3677      3680
      3677      3680      3681      3677      3680      3682      3677      3680      3683
      3681      3680      3682      3681      3680      3683      3682      3680      3683
      3680      3683      3684      3680      3683      3685      3680      3683      3686
      3684      3683      3685      3684      3683      3686      3685      3683      3686
      3683      3686      3687      3683      3686      3688      3683      3686      3689
      3687      3686      3688      3687      3686      3689      3688      3686      3689
      3686      3689      3690      3686      3689      3691      3686      3689      3692
      3690      3689      3691      3690      3689      3692      3691      3689      3692
      3689      3692      3693      3689      3692      3694      3689      3692      3695
      3693      3692      3694      3693      3692      3695      3694      3692      3695
      3692      3695      3696      3692      3695      3697      3692      3695      3698
      3696      3695      3697      3696      3695      3698      3697      3695      3698
      3695      3698      3699      3695      3698      3700      3699      3698      3700
      3698      3700      3701      3698      3700      3702      3701      3700      3702
      3700      3702      3703      3700      3702      3704      3700      3702      3705
      3703      3702      3704      3703      3702      3705      3704      3702      3705
      3702      3705      3706      3702      3705      3707      3702      3705      3708
      3706      3705      3707      3706      3705      3708      3707      3705      3708
      3705      3708      3709      3705      3708      3710      3705      3708      3711
      3709      3708      3710      3709      3708      3711      3710      3708      3711
      3708      3711      3712      3708      3711      3713      3708      3711      3714
      3712      3711      3713      3712      3711      3714      3713      3711      3714
      3711      3714      3715      3711      3714      3716      3711      3714      3717
      3715      3714      3716      3715      3714      3717      3716      3714      3717
      3714      3717      3718      3714      3717      3719      3714      3717      3720
      3718      3717      3719      3718      3717      3720      3719      3717      3720
      3717      3720      3721      3717      3720      3722      3717      3720      3723
      3721      3720      3722      3721      3720      3723      3722      3720      3723
      3720      3723      3724      3720      3723      3725      3720      3723      3726
      3724      3723      3725      3724      3723      3726      3725      3723      3726
      3728      3727      3729      3728      3727      3730      3728      3727      3731
      3729      3727      3730      3729      3727      3731      3730      3727      3731
      3727      3731      3732      3727      3731      3733      3727      3731      3734
      3732      3731      3733      3732      3731      3734      3733      3731      3734
      3731      3734      3735      3731      3734      3736      3731      3734      3737
      3735      3734      3736      3735      3734      3737      3736      3734      3737
      3734      3737      3738      3734      3737      3739      3734      3737      3740
      3738      3737      3739      3738      3737      3740      3739      3737      3740
      3737      3740      3741      3737      3740      3742      3737      3740      3743
      3741      3740      3742      3741      3740      3743      3742      3740      3743
      3740      3743      3744      3740      3743      3745      3740      3743      3746
      3744      3743      3745      3744      3743      3746      3745      3743      3746
      3743      3746      3747      3743      3746      3748      3743      3746      3749
      3747      3746      3748      3747      3746      3749      3748      3746      3749
      3746      3749      3750      3746      3749      3751      3746      3749      3752
      3750      3749      3751      3750      3749      3752      3751      3749      3752
      3749      3752      3753      3749      3752      3754      3749      3752      3755
      3753      3752      3754      3753      3752      3755      3754      3752      3755
      3752      3755      3756      3752      3755      3757      3752      3755      3758
      3756      3755      3757      3756      3755      3758      3757      3755      3758
      3755      3758      3759      3755      3758      3760      3755      3758      3761
      3759      3758      3760      3759      3758      3761      3760      3758      3761
      3758      3761      3762      3758      3761      3763      3758      3761      3764
      3762      3761      3763      3762      3761      3764      3763      3761      3764
      3761      3764      3765      3761      3764      3766      3761      3764      3767
      3765      3764      3766      3765      3764      3767      3766      3764      3767
      3764      3767      3768      3764      3767      3769      3764      3767      3770
      3768      3767      3769      3768      3767      3770      3769      3767      3770
      3773      3770      3767      3773      3770      3771      3773      3770      3772
      3767      3770      3771      3767      3770      3772      3771      3770      3772
      3770      3773      3774      3770      3773      3775      3774      3773      3775
      3773      3775      3776      3775      3776      3777      3775      3776      3778
      3775      3776      3779      3777      3776      3778      3777      3776      3779
      3778      3776      3779      3776      3779      3780      3776      3779      3781
      3776      3779      3808      3780      3779      3781      3780      3779      3808
      3781      3779      3808      3779      3781      3782      3779      3781      3783
      3779      3781      3784      3782      3781      3783      3782      3781      3784
      3783      3781      3784      3781      3784      3785      3784      3785      3786
      3784      3785      3806      3784      3785      3807      3786      3785      3806
      3786      3785      3807      3806      3785      3807      3785      3786      3787
      3786      3787      3788      3786      3787      3789      3786      3787      3790
      3788      3787      3789      3788      3787      3790      3789      3787      3790
      3787      3790      3791      3787      3790      3792      3787      3790      3793
      3791      3790      3792      3791      3790      3793      3792      3790      3793
      3790      3793      3794      3790      3793      3798      3790      3793      3802
      3794      3793      3798      3794      3793      3802      3798      3793      3802
      3793      3794      3795      3793      3794      3796      3793      3794      3797
      3795      3794      3796      3795      3794      3797      3796      3794      3797
      3793      3798      3799      3793      3798      3800      3793      3798      3801
      3799      3798      3800      3799      3798      3801      3800      3798      3801
      3793      3802      3803      3793      3802      3804      3793      3802      3805
      3803      3802      3804      3803      3802      3805      3804      3802      3805
      3779      3808      3809      3811      3809      3808      3811      3809      3810
      3808      3809      3810      3809      3811      3812      3809      3811      3813
      3809      3811      3814      3812      3811      3813      3812      3811      3814
      3813      3811      3814      3811      3814      3815      3811      3814      3816
      3811      3814      3817      3815      3814      3816      3815      3814      3817
      3816      3814      3817      3814      3817      3818      3814      3817      3819
      3814      3817      3820      3818      3817      3819      3818      3817      3820
      3819      3817      3820      3817      3820      3821      3817      3820      3822
      3817      3820      3823      3821      3820      3822      3821      3820      3823
      3822      3820      3823      3820      3823      3824      3820      3823      3825
      3820      3823      3826      3824      3823      3825      3824      3823      3826
      3825      3823      3826      3823      3826      3827      3823      3826      3828
      3823      3826      3829      3827      3826      3828      3827      3826      3829
      3828      3826      3829      3826      3829      3830      3826      3829      3831
      3826      3829      3832      3830      3829      3831      3830      3829      3832
      3831      3829      3832      3829      3832      3833      3829      3832      3834
      3833      3832      3834      3832      3834      3835      3832      3834      3836
      3835      3834      3836      3834      3836      3837      3834      3836      3838
      3834      3836      3839      3837      3836      3838      3837      3836      3839
      3838      3836      3839      3836      3839      3840      3836      3839      3841
      3836      3839      3842      3840      3839      3841      3840      3839      3842
      3841      3839      3842      3839      3842      3843      3839      3842      3844
      3839      3842      3845      3843      3842      3844      3843      3842      3845
      3844      3842      3845      3842      3845      3846      3842      3845      3847
      3842      3845      3848      3846      3845      3847      3846      3845      3848
      3847      3845      3848      3845      3848      3849      3845      3848      3850
      3845      3848      3851      3849      3848      3850      3849      3848      3851
      3850      3848      3851      3848      3851      3852      3848      3851      3853
      3848      3851      3854      3852      3851      3853      3852      3851      3854
      3853      3851      3854      3851      3854      3855      3851      3854      3856
      3851      3854      3857      3855      3854      3856      3855      3854      3857
      3856      3854      3857      3854      3857      3858      3854      3857      3859
      3854      3857      3860      3858      3857      3859      3858      3857      3860
      3859      3857      3860      3862      3861      3863      3862      3861      3864
      3862      3861      3865      3863      3861      3864      3863      3861      3865
      3864      3861      3865      3861      3865      3866      3861      3865      3867
      3861      3865      3868      3866      3865      3867      3866      3865      3868
      3867      3865      3868      3865      3868      3869      3865      3868      3870
      3865      3868      3871      3869      3868      3870      3869      3868      3871
      3870      3868      3871      3868      3871      3872      3868      3871      3873
      3868      3871      3874      3872      3871      3873      3872      3871      3874
      3873      3871      3874      3871      3874      3875      3871      3874      3876
      3871      3874      3877      3875      3874      3876      3875      3874      3877
      3876      3874      3877      3874      3877      3878      3874      3877      3879
      3874      3877      3880      3878      3877      3879      3878      3877      3880
      3879      3877      3880      3877      3880      3881      3877      3880      3882
      3877      3880      3883      3881      3880      3882      3881      3880      3883
      3882      3880      3883      3880      3883      3884      3880      3883      3885
      3880      3883      3886      3884      3883      3885      3884      3883      3886
      3885      3883      3886      3883      3886      3887      3883      3886      3888
      3883      3886      3889      3887      3886      3888      3887      3886      3889
      3888      3886      3889      3886      3889      3890      3886      3889      3891
      3886      3889      3892      3890      3889      3891      3890      3889      3892
      3891      3889      3892      3889      3892      3893      3889      3892      3894
      3889      3892      3895      3893      3892      3894      3893      3892      3895
      3894      3892      3895      3892      3895      3896      3892      3895      3897
      3892      3895      3898      3896      3895      3897      3896      3895      3898
      3897      3895      3898      3895      3898      3899      3895      3898      3900
      3895      3898      3901      3899      3898      3900      3899      3898      3901
      3900      3898      3901      3898      3901      3902      3898      3901      3903
      3898      3901      3904      3902      3901      3903      3902      3901      3904
      3903      3901      3904      3907      3904      3901      3907      3904      3905
      3907      3904      3906      3901      3904      3905      3901      3904      3906
      3905      3904      3906      3904      3907      3908      3904      3907      3909
      3908      3907      3909      3907      3909      3910      3909      3910      3911
      3909      3910      3912      3909      3910      3913      3911      3910      3912
      3911      3910      3913      3912      3910      3913      3910      3913      3914
      3910      3913      3915      3910      3913      3942      3914      3913      3915
      3914      3913      3942      3915      3913      3942      3913      3915      3916
      3913      3915      3917      3913      3915      3918      3916      3915      3917
      3916      3915      3918      3917      3915      3918      3915      3918      3919
      3918      3919      3920      3918      3919      3940      3918      3919      3941
      3920      3919      3940      3920      3919      3941      3940      3919      3941
      3919      3920      3921      3920      3921      3922      3920      3921      3923
      3920      3921      3924      3922      3921      3923      3922      3921      3924
      3923      3921      3924      3921      3924      3925      3921      3924      3926
      3921      3924      3927      3925      3924      3926      3925      3924      3927
      3926      3924      3927      3924      3927      3928      3924      3927      3932
      3924      3927      3936      3928      3927      3932      3928      3927      3936
      3932      3927      3936      3927      3928      3929      3927      3928      3930
      3927      3928      3931      3929      3928      3930      3929      3928      3931
      3930      3928      3931      3927      3932      3933      3927      3932      3934
      3927      3932      3935      3933      3932      3934      3933      3932      3935
      3934      3932      3935      3927      3936      3937      3927      3936      3938
      3927      3936      3939      3937      3936      3938      3937      3936      3939
      3938      3936      3939      3913      3942      3943      3945      3943      3942
      3945      3943      3944      3942      3943      3944      3943      3945      3946
      3943      3945      3947      3943      3945      3948      3946      3945      3947
      3946      3945      3948      3947      3945      3948      3945      3948      3949
      3945      3948      3950      3945      3948      3951      3949      3948      3950
      3949      3948      3951      3950      3948      3951      3948      3951      3952
      3948      3951      3953      3948      3951      3954      3952      3951      3953
      3952      3951      3954      3953      3951      3954      3951      3954      3955
      3951      3954      3956      3951      3954      3957      3955      3954      3956
      3955      3954      3957      3956      3954      3957      3954      3957      3958
      3954      3957      3959      3954      3957      3960      3958      3957      3959
      3958      3957      3960      3959      3957      3960      3957      3960      3961
      3957      3960      3962      3957      3960      3963      3961      3960      3962
      3961      3960      3963      3962      3960      3963      3960      3963      3964
      3960      3963      3965      3960      3963      3966      3964      3963      3965
      3964      3963      3966      3965      3963      3966      3963      3966      3967
      3963      3966      3968      3967      3966      3968      3966      3968      3969
      3966      3968      3970      3969      3968      3970      3968      3970      3971
      3968      3970      3972      3968      3970      3973      3971      3970      3972
      3971      3970      3973      3972      3970      3973      3970      3973      3974
      3970      3973      3975      3970      3973      3976      3974      3973      3975
      3974      3973      3976      3975      3973      3976      3973      3976      3977
      3973      3976      3978      3973      3976      3979      3977      3976      3978
      3977      3976      3979      3978      3976      3979      3976      3979      3980
      3976      3979      3981      3976      3979      3982      3980      3979      3981
      3980      3979      3982      3981      3979      3982      3979      3982      3983
      3979      3982      3984      3979      3982      3985      3983      3982      3984
      3983      3982      3985      3984      3982      3985      3982      3985      3986
      3982      3985      3987      3982      3985      3988      3986      3985      3987
      3986      3985      3988      3987      3985      3988      3985      3988      3989
      3985      3988      3990      3985      3988      3991      3989      3988      3990
      3989      3988      3991      3990      3988      3991      3988      3991      3992
      3988      3991      3993      3988      3991      3994      3992      3991      3993
      3992      3991      3994      3993      3991      3994      3996      3995      3997
      3996      3995      3998      3996      3995      3999      3997      3995      3998
      3997      3995      3999      3998      3995      3999      3995      3999      4000
      3995      3999      4001      3995      3999      4002      4000      3999      4001
      4000      3999      4002      4001      3999      4002      3999      4002      4003
      3999      4002      4004      3999      4002      4005      4003      4002      4004
      4003      4002      4005      4004      4002      4005      4002      4005      4006
      4002      4005      4007      4002      4005      4008      4006      4005      4007
      4006      4005      4008      4007      4005      4008      4005      4008      4009
      4005      4008      4010      4005      4008      4011      4009      4008      4010
      4009      4008      4011      4010      4008      4011      4008      4011      4012
      4008      4011      4013      4008      4011      4014      4012      4011      4013
      4012      4011      4014      4013      4011      4014      4011      4014      4015
      4011      4014      4016      4011      4014      4017      4015      4014      4016
      4015      4014      4017      4016      4014      4017      4014      4017      4018
      4014      4017      4019      4014      4017      4020      4018      4017      4019
      4018      4017      4020      4019      4017      4020      4017      4020      4021
      4017      4020      4022      4017      4020      4023      4021      4020      4022
      4021      4020      4023      4022      4020      4023      4020      4023      4024
      4020      4023      4025      4020      4023      4026      4024      4023      4025
      4024      4023      4026      4025      4023      4026      4023      4026      4027
      4023      4026      4028      4023      4026      4029      4027      4026      4028
      4027      4026      4029      4028      4026      4029      4026      4029      4030
      4026      4029      4031      4026      4029      4032      4030      4029      4031
      4030      4029      4032      4031      4029      4032      4029      4032      4033
      4029      4032      4034      4029      4032      4035      4033      4032      4034
      4033      4032      4035      4034      4032      4035      4032      4035      4036
      4032      4035      4037      4032      4035      4038      4036      4035      4037
      4036      4035      4038      4037      4035      4038      4041      4038      4035
      4041      4038      4039      4041      4038      4040      4035      4038      4039
      4035      4038      4040      4039      4038      4040      4038      4041      4042
      4038      4041      4043      4042      4041      4043      4041      4043      4044
      4043      4044      4045      4043      4044      4046      4043      4044      4047
      4045      4044      4046      4045      4044      4047      4046      4044      4047
      4044      4047      4048      4044      4047      4049      4044      4047      4076
      4048      4047      4049      4048      4047      4076      4049      4047      4076
      4047      4049      4050      4047      4049      4051      4047      4049      4052
      4050      4049      4051      4050      4049      4052      4051      4049      4052
      4049      4052      4053      4052      4053      4054      4052      4053      4074
      4052      4053      4075      4054      4053      4074      4054      4053      4075
      4074      4053      4075      4053      4054      4055      4054      4055      4056
      4054      4055      4057      4054      4055      4058      4056      4055      4057
      4056      4055      4058      4057      4055      4058      4055      4058      4059
      4055      4058      4060      4055      4058      4061      4059      4058      4060
      4059      4058      4061      4060      4058      4061      4058      4061      4062
      4058      4061      4066      4058      4061      4070      4062      4061      4066
      4062      4061      4070      4066      4061      4070      4061      4062      4063
      4061      4062      4064      4061      4062      4065      4063      4062      4064
      4063      4062      4065      4064      4062      4065      4061      4066      4067
      4061      4066      4068      4061      4066      4069      4067      4066      4068
      4067      4066      4069      4068      4066      4069      4061      4070      4071
      4061      4070      4072      4061      4070      4073      4071      4070      4072
      4071      4070      4073      4072      4070      4073      4047      4076      4077
      4079      4077      4076      4079      4077      4078      4076      4077      4078
      4077      4079      4080      4077      4079      4081      4077      4079      4082
      4080      4079      4081      4080      4079      4082      4081      4079      4082
      4079      4082      4083      4079      4082      4084      4079      4082      4085
      4083      4082      4084      4083      4082      4085      4084      4082      4085
      4082      4085      4086      4082      4085      4087      4082      4085      4088
      4086      4085      4087      4086      4085      4088      4087      4085      4088
      4085      4088      4089      4085      4088      4090      4085      4088      4091
      4089      4088      4090      4089      4088      4091      4090      4088      4091
      4088      4091      4092      4088      4091      4093      4088      4091      4094
      4092      4091      4093      4092      4091      4094      4093      4091      4094
      4091      4094      4095      4091      4094      4096      4091      4094      4097
      4095      4094      4096      4095      4094      4097      4096      4094      4097
      4094      4097      4098      4094      4097      4099      4094      4097      4100
      4098      4097      4099      4098      4097      4100      4099      4097      4100
      4097      4100      4101      4097      4100      4102      4101      4100      4102
      4100      4102      4103      4100      4102      4104      4103      4102      4104
      4102      4104      4105      4102      4104      4106      4102      4104      4107
      4105      4104      4106      4105      4104      4107      4106      4104      4107
      4104      4107      4108      4104      4107      4109      4104      4107      4110
      4108      4107      4109      4108      4107      4110      4109      4107      4110
      4107      4110      4111      4107      4110      4112      4107      4110      4113
      4111      4110      4112      4111      4110      4113      4112      4110      4113
      4110      4113      4114      4110      4113      4115      4110      4113      4116
      4114      4113      4115      4114      4113      4116      4115      4113      4116
      4113      4116      4117      4113      4116      4118      4113      4116      4119
      4117      4116      4118      4117      4116      4119      4118      4116      4119
      4116      4119      4120      4116      4119      4121      4116      4119      4122
      4120      4119      4121      4120      4119      4122      4121      4119      4122
      4119      4122      4123      4119      4122      4124      4119      4122      4125
      4123      4122      4124      4123      4122      4125      4124      4122      4125
      4122      4125      4126      4122      4125      4127      4122      4125      4128
      4126      4125      4127      4126      4125      4128      4127      4125      4128
      4130      4129      4131      4130      4129      4132      4130      4129      4133
      4131      4129      4132      4131      4129      4133      4132      4129      4133
      4129      4133      4134      4129      4133      4135      4129      4133      4136
      4134      4133      4135      4134      4133      4136      4135      4133      4136
      4133      4136      4137      4133      4136      4138      4133      4136      4139
      4137      4136      4138      4137      4136      4139      4138      4136      4139
      4136      4139      4140      4136      4139      4141      4136      4139      4142
      4140      4139      4141      4140      4139      4142      4141      4139      4142
      4139      4142      4143      4139      4142      4144      4139      4142      4145
      4143      4142      4144      4143      4142      4145      4144      4142      4145
      4142      4145      4146      4142      4145      4147      4142      4145      4148
      4146      4145      4147      4146      4145      4148      4147      4145      4148
      4145      4148      4149      4145      4148      4150      4145      4148      4151
      4149      4148      4150      4149      4148      4151      4150      4148      4151
      4148      4151      4152      4148      4151      4153      4148      4151      4154
      4152      4151      4153      4152      4151      4154      4153      4151      4154
      4151      4154      4155      4151      4154      4156      4151      4154      4157
      4155      4154      4156      4155      4154      4157      4156      4154      4157
      4154      4157      4158      4154      4157      4159      4154      4157      4160
      4158      4157      4159      4158      4157      4160      4159      4157      4160
      4157      4160      4161      4157      4160      4162      4157      4160      4163
      4161      4160      4162      4161      4160      4163      4162      4160      4163
      4160      4163      4164      4160      4163      4165      4160      4163      4166
      4164      4163      4165      4164      4163      4166      4165      4163      4166
      4163      4166      4167      4163      4166      4168      4163      4166      4169
      4167      4166      4168      4167      4166      4169      4168      4166      4169
      4166      4169      4170      4166      4169      4171      4166      4169      4172
      4170      4169      4171      4170      4169      4172      4171      4169      4172
      4175      4172      4169      4175      4172      4173      4175      4172      4174
      4169      4172      4173      4169      4172      4174      4173      4172      4174
      4172      4175      4176      4172      4175      4177      4176      4175      4177
      4175      4177      4178      4177      4178      4179      4177      4178      4180
      4177      4178      4181      4179      4178      4180      4179      4178      4181
      4180      4178      4181      4178      4181      4182      4178      4181      4183
      4178      4181      4210      4182      4181      4183      4182      4181      4210
      4183      4181      4210      4181      4183      4184      4181      4183      4185
      4181      4183      4186      4184      4183      4185      4184      4183      4186
      4185      4183      4186      4183      4186      4187      4186      4187      4188
      4186      4187      4208      4186      4187      4209      4188      4187      4208
      4188      4187      4209      4208      4187      4209      4187      4188      4189
      4188      4189      4190      4188      4189      4191      4188      4189      4192
      4190      4189      4191      4190      4189      4192      4191      4189      4192
      4189      4192      4193      4189      4192      4194      4189      4192      4195
      4193      4192      4194      4193      4192      4195      4194      4192      4195
      4192      4195      4196      4192      4195      4200      4192      4195      4204
      4196      4195      4200      4196      4195      4204      4200      4195      4204
      4195      4196      4197      4195      4196      4198      4195      4196      4199
      4197      4196      4198      4197      4196      4199      4198      4196      4199
      4195      4200      4201      4195      4200      4202      4195      4200      4203
      4201      4200      4202      4201      4200      4203      4202      4200      4203
      4195      4204      4205      4195      4204      4206      4195      4204      4207
      4205      4204      4206      4205      4204      4207      4206      4204      4207
      4181      4210      4211      4213      4211      4210      4213      4211      4212
      4210      4211      4212      4211      4213      4214      4211      4213      4215
      4211      4213      4216      4214      4213      4215      4214      4213      4216
      4215      4213      4216      4213      4216      4217      4213      4216      4218
      4213      4216      4219      4217      4216      4218      4217      4216      4219
      4218      4216      4219      4216      4219      4220      4216      4219      4221
      4216      4219      4222      4220      4219      4221      4220      4219      4222
      4221      4219      4222      4219      4222      4223      4219      4222      4224
      4219      4222      4225      4223      4222      4224      4223      4222      4225
      4224      4222      4225      4222      4225      4226      4222      4225      4227
      4222      4225      4228      4226      4225      4227      4226      4225      4228
      4227      4225      4228      4225      4228      4229      4225      4228      4230
      4225      4228      4231      4229      4228      4230      4229      4228      4231
      4230      4228      4231      4228      4231      4232      4228      4231      4233
      4228      4231      4234      4232      4231      4233      4232      4231      4234
      4233      4231      4234      4231      4234      4235      4231      4234      4236
      4235      4234      4236      4234      4236      4237      4234      4236      4238
      4237      4236      4238      4236      4238      4239      4236      4238      4240
      4236      4238      4241      4239      4238      4240      4239      4238      4241
      4240      4238      4241      4238      4241      4242      4238      4241      4243
      4238      4241      4244      4242      4241      4243      4242      4241      4244
      4243      4241      4244      4241      4244      4245      4241      4244      4246
      4241      4244      4247      4245      4244      4246      4245      4244      4247
      4246      4244      4247      4244      4247      4248      4244      4247      4249
      4244      4247      4250      4248      4247      4249      4248      4247      4250
      4249      4247      4250      4247      4250      4251      4247      4250      4252
      4247      4250      4253      4251      4250      4252      4251      4250      4253
      4252      4250      4253      4250      4253      4254      4250      4253      4255
      4250      4253      4256      4254      4253      4255      4254      4253      4256
      4255      4253      4256      4253      4256      4257      4253      4256      4258
      4253      4256      4259      4257      4256      4258      4257      4256      4259
      4258      4256      4259      4256      4259      4260      4256      4259      4261
      4256      4259      4262      4260      4259      4261      4260      4259      4262
      4261      4259      4262      4264      4263      4265      4264      4263      4266
      4264      4263      4267      4265      4263      4266      4265      4263      4267
      4266      4263      4267      4263      4267      4268      4263      4267      4269
      4263      4267      4270      4268      4267      4269      4268      4267      4270
      4269      4267      4270      4267      4270      4271      4267      4270      4272
      4267      4270      4273      4271      4270      4272      4271      4270      4273
      4272      4270      4273      4270      4273      4274      4270      4273      4275
      4270      4273      4276      4274      4273      4275      4274      4273      4276
      4275      4273      4276      4273      4276      4277      4273      4276      4278
      4273      4276      4279      4277      4276      4278      4277      4276      4279
      4278      4276      4279      4276      4279      4280      4276      4279      4281
      4276      4279      4282      4280      4279      4281      4280      4279      4282
      4281      4279      4282      4279      4282      4283      4279      4282      4284
      4279      4282      4285      4283      4282      4284      4283      4282      4285
      4284      4282      4285      4282      4285      4286      4282      4285      4287
      4282      4285      4288      4286      4285      4287      4286      4285      4288
      4287      4285      4288      4285      4288      4289      4285      4288      4290
      4285      4288      4291      4289      4288      4290      4289      4288      4291
      4290      4288      4291      4288      4291      4292      4288      4291      4293
      4288      4291      4294      4292      4291      4293      4292      4291      4294
      4293      4291      4294      4291      4294      4295      4291      4294      4296
      4291      4294      4297      4295      4294      4296      4295      4294      4297
      4296      4294      4297      4294      4297      4298      4294      4297      4299
      4294      4297      4300      4298      4297      4299      4298      4297      4300
      4299      4297      4300      4297      4300      4301      4297      4300      4302
      4297      4300      4303      4301      4300      4302      4301      4300      4303
      4302      4300      4303      4300      4303      4304      4300      4303      4305
      4300      4303      4306      4304      4303      4305      4304      4303      4306
      4305      4303      4306      4309      4306      4303      4309      4306      4307
      4309      4306      4308      4303      4306      4307      4303      4306      4308
      4307      4306      4308      4306      4309      4310      4306      4309      4311
      4310      4309      4311      4309      4311      4312      4311      4312      4313
      4311      4312      4314      4311      4312      4315      4313      4312      4314
      4313      4312      4315      4314      4312      4315      4312      4315      4316
      4312      4315      4317      4312      4315      4344      4316      4315      4317
      4316      4315      4344      4317      4315      4344      4315      4317      4318
      4315      4317      4319      4315      4317      4320      4318      4317      4319
      4318      4317      4320      4319      4317      4320      4317      4320      4321
      4320      4321      4322      4320      4321      4342      4320      4321      4343
      4322      4321      4342      4322      4321      4343      4342      4321      4343
      4321      4322      4323      4322      4323      4324      4322      4323      4325
      4322      4323      4326      4324      4323      4325      4324      4323      4326
      4325      4323      4326      4323      4326      4327      4323      4326      4328
      4323      4326      4329      4327      4326      4328      4327      4326      4329
      4328      4326      4329      4326      4329      4330      4326      4329      4334
      4326      4329      4338      4330      4329      4334      4330      4329      4338
      4334      4329      4338      4329      4330      4331      4329      4330      4332
      4329      4330      4333      4331      4330      4332      4331      4330      4333
      4332      4330      4333      4329      4334      4335      4329      4334      4336
      4329      4334      4337      4335      4334      4336      4335      4334      4337
      4336      4334      4337      4329      4338      4339      4329      4338      4340
      4329      4338      4341      4339      4338      4340      4339      4338      4341
      4340      4338      4341      4315      4344      4345      4347      4345      4344
      4347      4345      4346      4344      4345      4346      4345      4347      4348
      4345      4347      4349      4345      4347      4350      4348      4347      4349
      4348      4347      4350      4349      4347      4350      4347      4350      4351
      4347      4350      4352      4347      4350      4353      4351      4350      4352
      4351      4350      4353      4352      4350      4353      4350      4353      4354
      4350      4353      4355      4350      4353      4356      4354      4353      4355
      4354      4353      4356      4355      4353      4356      4353      4356      4357
      4353      4356      4358      4353      4356      4359      4357      4356      4358
      4357      4356      4359      4358      4356      4359      4356      4359      4360
      4356      4359      4361      4356      4359      4362      4360      4359      4361
      4360      4359      4362      4361      4359      4362      4359      4362      4363
      4359      4362      4364      4359      4362      4365      4363      4362      4364
      4363      4362      4365      4364      4362      4365      4362      4365      4366
      4362      4365      4367      4362      4365      4368      4366      4365      4367
      4366      4365      4368      4367      4365      4368      4365      4368      4369
      4365      4368      4370      4369      4368      4370      4368      4370      4371
      4368      4370      4372      4371      4370      4372      4370      4372      4373
      4370      4372      4374      4370      4372      4375      4373      4372      4374
      4373      4372      4375      4374      4372      4375      4372      4375      4376
      4372      4375      4377      4372      4375      4378      4376      4375      4377
      4376      4375      4378      4377      4375      4378      4375      4378      4379
      4375      4378      4380      4375      4378      4381      4379      4378      4380
      4379      4378      4381      4380      4378      4381      4378      4381      4382
      4378      4381      4383      4378      4381      4384      4382      4381      4383
      4382      4381      4384      4383      4381      4384      4381      4384      4385
      4381      4384      4386      4381      4384      4387      4385      4384      4386
      4385      4384      4387      4386      4384      4387      4384      4387      4388
      4384      4387      4389      4384      4387      4390      4388      4387      4389
      4388      4387      4390      4389      4387      4390      4387      4390      4391
      4387      4390      4392      4387      4390      4393      4391      4390      4392
      4391      4390      4393      4392      4390      4393      4390      4393      4394
      4390      4393      4395      4390      4393      4396      4394      4393      4395
      4394      4393      4396      4395      4393      4396      4398      4397      4399
      4398      4397      4400      4398      4397      4401      4399      4397      4400
      4399      4397      4401      4400      4397      4401      4397      4401      4402
      4397      4401      4403      4397      4401      4404      4402      4401      4403
      4402      4401      4404      4403      4401      4404      4401      4404      4405
      4401      4404      4406      4401      4404      4407      4405      4404      4406
      4405      4404      4407      4406      4404      4407      4404      4407      4408
      4404      4407      4409      4404      4407      4410      4408      4407      4409
      4408      4407      4410      4409      4407      4410      4407      4410      4411
      4407      4410      4412      4407      4410      4413      4411      4410      4412
      4411      4410      4413      4412      4410      4413      4410      4413      4414
      4410      4413      4415      4410      4413      4416      4414      4413      4415
      4414      4413      4416      4415      4413      4416      4413      4416      4417
      4413      4416      4418      4413      4416      4419      4417      4416      4418
      4417      4416      4419      4418      4416      4419      4416      4419      4420
      4416      4419      4421      4416      4419      4422      4420      4419      4421
      4420      4419      4422      4421      4419      4422      4419      4422      4423
      4419      4422      4424      4419      4422      4425      4423      4422      4424
      4423      4422      4425      4424      4422      4425      4422      4425      4426
      4422      4425      4427      4422      4425      4428      4426      4425      4427
      4426      4425      4428      4427      4425      4428      4425      4428      4429
      4425      4428      4430      4425      4428      4431      4429      4428      4430
      4429      4428      4431      4430      4428      4431      4428      4431      4432
      4428      4431      4433      4428      4431      4434      4432      4431      4433
      4432      4431      4434      4433      4431      4434      4431      4434      4435
      4431      4434      4436      4431      4434      4437      4435      4434      4436
      4435      4434      4437      4436      4434      4437      4434      4437      4438
      4434      4437      4439      4434      4437      4440      4438      4437      4439
      4438      4437      4440      4439      4437      4440      4443      4440      4437
      4443      4440      4441      4443      4440      4442      4437      4440      4441
      4437      4440      4442      4441      4440      4442      4440      4443      4444
      4440      4443      4445      4444      4443      4445      4443      4445      4446
      4445      4446      4447      4445      4446      4448      4445      4446      4449
      4447      4446      4448      4447      4446      4449      4448      4446      4449
      4446      4449      4450      4446      4449      4451      4446      4449      4478
      4450      4449      4451      4450      4449      4478      4451      4449      4478
      4449      4451      4452      4449      4451      4453      4449      4451      4454
      4452      4451      4453      4452      4451      4454      4453      4451      4454
      4451      4454      4455      4454      4455      4456      4454      4455      4476
      4454      4455      4477      4456      4455      4476      4456      4455      4477
      4476      4455      4477      4455      4456      4457      4456      4457      4458
      4456      4457      4459      4456      4457      4460      4458      4457      4459
      4458      4457      4460      4459      4457      4460      4457      4460      4461
      4457      4460      4462      4457      4460      4463      4461      4460      4462
      4461      4460      4463      4462      4460      4463      4460      4463      4464
      4460      4463      4468      4460      4463      4472      4464      4463      4468
      4464      4463      4472      4468      4463      4472      4463      4464      4465
      4463      4464      4466      4463      4464      4467      4465      4464      4466
      4465      4464      4467      4466      4464      4467      4463      4468      4469
      4463      4468      4470      4463      4468      4471      4469      4468      4470
      4469      4468      4471      4470      4468      4471      4463      4472      4473
      4463      4472      4474      4463      4472      4475      4473      4472      4474
      4473      4472      4475      4474      4472      4475      4449      4478      4479
      4481      4479      4478      4481      4479      4480      4478      4479      4480
      4479      4481      4482      4479      4481      4483      4479      4481      4484
      4482      4481      4483      4482      4481      4484      4483      4481      4484
      4481      4484      4485      4481      4484      4486      4481      4484      4487
      4485      4484      4486      4485      4484      4487      4486      4484      4487
      4484      4487      4488      4484      4487      4489      4484      4487      4490
      4488      4487      4489      4488      4487      4490      4489      4487      4490
      4487      4490      4491      4487      4490      4492      4487      4490      4493
      4491      4490      4492      4491      4490      4493      4492      4490      4493
      4490      4493      4494      4490      4493      4495      4490      4493      4496
      4494      4493      4495      4494      4493      4496      4495      4493      4496
      4493      4496      4497      4493      4496      4498      4493      4496      4499
      4497      4496      4498      4497      4496      4499      4498      4496      4499
      4496      4499      4500      4496      4499      4501      4496      4499      4502
      4500      4499      4501      4500      4499      4502      4501      4499      4502
      4499      4502      4503      4499      4502      4504      4503      4502      4504
      4502      4504      4505      4502      4504      4506      4505      4504      4506
      4504      4506      4507      4504      4506      4508      4504      4506      4509
      4507      4506      4508      4507      4506      4509      4508      4506      4509
      4506      4509      4510      4506      4509      4511      4506      4509      4512
      4510      4509      4511      4510      4509      4512      4511      4509      4512
      4509      4512      4513      4509      4512      4514      4509      4512      4515
      4513      4512      4514      4513      4512      4515      4514      4512      4515
      4512      4515      4516      4512      4515      4517      4512      4515      4518
      4516      4515      4517      4516      4515      4518      4517      4515      4518
      4515      4518      4519      4515      4518      4520      4515      4518      4521
      4519      4518      4520      4519      4518      4521      4520      4518      4521
      4518      4521      4522      4518      4521      4523      4518      4521      4524
      4522      4521      4523      4522      4521      4524      4523      4521      4524
      4521      4524      4525      4521      4524      4526      4521      4524      4527
      4525      4524      4526      4525      4524      4527      4526      4524      4527
      4524      4527      4528      4524      4527      4529      4524      4527      4530
      4528      4527      4529      4528      4527      4530      4529      4527      4530
      4532      4531      4533      4532      4531      4534      4532      4531      4535
      4533      4531      4534      4533      4531      4535      4534      4531      4535
      4531      4535      4536      4531      4535      4537      4531      4535      4538
      4536      4535      4537      4536      4535      4538      4537      4535      4538
      4535      4538      4539      4535      4538      4540      4535      4538      4541
      4539      4538      4540      4539      4538      4541      4540      4538      4541
      4538      4541      4542      4538      4541      4543      4538      4541      4544
      4542      4541      4543      4542      4541      4544      4543      4541      4544
      4541      4544      4545      4541      4544      4546      4541      4544      4547
      4545      4544      4546      4545      4544      4547      4546      4544      4547
      4544      4547      4548      4544      4547      4549      4544      4547      4550
      4548      4547      4549      4548      4547      4550      4549      4547      4550
      4547      4550      4551      4547      4550      4552      4547      4550      4553
      4551      4550      4552      4551      4550      4553      4552      4550      4553
      4550      4553      4554      4550      4553      4555      4550      4553      4556
      4554      4553      4555      4554      4553      4556      4555      4553      4556
      4553      4556      4557      4553      4556      4558      4553      4556      4559
      4557      4556      4558      4557      4556      4559      4558      4556      4559
      4556      4559      4560      4556      4559      4561      4556      4559      4562
      4560      4559      4561      4560      4559      4562      4561      4559      4562
      4559      4562      4563      4559      4562      4564      4559      4562      4565
      4563      4562      4564      4563      4562      4565      4564      4562      4565
      4562      4565      4566      4562      4565      4567      4562      4565      4568
      4566      4565      4567      4566      4565      4568      4567      4565      4568
      4565      4568      4569      4565      4568      4570      4565      4568      4571
      4569      4568      4570      4569      4568      4571      4570      4568      4571
      4568      4571      4572      4568      4571      4573      4568      4571      4574
      4572      4571      4573      4572      4571      4574      4573      4571      4574
      4577      4574      4571      4577      4574      4575      4577      4574      4576
      4571      4574      4575      4571      4574      4576      4575      4574      4576
      4574      4577      4578      4574      4577      4579      4578      4577      4579
      4577      4579      4580      4579      4580      4581      4579      4580      4582
      4579      4580      4583      4581      4580      4582      4581      4580      4583
      4582      4580      4583      4580      4583      4584      4580      4583      4585
      4580      4583      4612      4584      4583      4585      4584      4583      4612
      4585      4583      4612      4583      4585      4586      4583      4585      4587
      4583      4585      4588      4586      4585      4587      4586      4585      4588
      4587      4585      4588      4585      4588      4589      4588      4589      4590
      4588      4589      4610      4588      4589      4611      4590      4589      4610
      4590      4589      4611      4610      4589      4611      4589      4590      4591
      4590      4591      4592      4590      4591      4593      4590      4591      4594
      4592      4591      4593      4592      4591      4594      4593      4591      4594
      4591      4594      4595      4591      4594      4596      4591      4594      4597
      4595      4594      4596      4595      4594      4597      4596      4594      4597
      4594      4597      4598      4594      4597      4602      4594      4597      4606
      4598      4597      4602      4598      4597      4606      4602      4597      4606
      4597      4598      4599      4597      4598      4600      4597      4598      4601
      4599      4598      4600      4599      4598      4601      4600      4598      4601
      4597      4602      4603      4597      4602      4604      4597      4602      4605
      4603      4602      4604      4603      4602      4605      4604      4602      4605
      4597      4606      4607      4597      4606      4608      4597      4606      4609
      4607      4606      4608      4607      4606      4609      4608      4606      4609
      4583      4612      4613      4615      4613      4612      4615      4613      4614
      4612      4613      4614      4613      4615      4616      4613      4615      4617
      4613      4615      4618      4616      4615      4617      4616      4615      4618
      4617      4615      4618      4615      4618      4619      4615      4618      4620
      4615      4618      4621      4619      4618      4620      4619      4618      4621
      4620      4618      4621      4618      4621      4622      4618      4621      4623
      4618      4621      4624      4622      4621      4623      4622      4621      4624
      4623      4621      4624      4621      4624      4625      4621      4624      4626
      4621      4624      4627      4625      4624      4626      4625      4624      4627
      4626      4624      4627      4624      4627      4628      4624      4627      4629
      4624      4627      4630      4628      4627      4629      4628      4627      4630
      4629      4627      4630      4627      4630      4631      4627      4630      4632
      4627      4630      4633      4631      4630      4632      4631      4630      4633
      4632      4630      4633      4630      4633      4634      4630      4633      4635
      4630      4633      4636      4634      4633      4635      4634      4633      4636
      4635      4633      4636      4633      4636      4637      4633      4636      4638
      4637      4636      4638      4636      4638      4639      4636      4638      4640
      4639      4638      4640      4638      4640      4641      4638      4640      4642
      4638      4640      4643      4641      4640      4642      4641      4640      4643
      4642      4640      4643      4640      4643      4644      4640      4643      4645
      4640      4643      4646      4644      4643      4645      4644      4643      4646
      4645      4643      4646      4643      4646      4647      4643      4646      4648
      4643      4646      4649      4647      4646      4648      4647      4646      4649
      4648      4646      4649      4646      4649      4650      4646      4649      4651
      4646      4649      4652      4650      4649      4651      4650      4649      4652
      4651      4649      4652      4649      4652      4653      4649      4652      4654
      4649      4652      4655      4653      4652      4654      4653      4652      4655
      4654      4652      4655      4652      4655      4656      4652      4655      4657
      4652      4655      4658      4656      4655      4657      4656      4655      4658
      4657      4655      4658      4655      4658      4659      4655      4658      4660
      4655      4658      4661      4659      4658      4660      4659      4658      4661
      4660      4658      4661      4658      4661      4662      4658      4661      4663
      4658      4661      4664      4662      4661      4663      4662      4661      4664
      4663      4661      4664      4666      4665      4667      4666      4665      4668
      4666      4665      4669      4667      4665      4668      4667      4665      4669
      4668      4665      4669      4665      4669      4670      4665      4669      4671
      4665      4669      4672      4670      4669      4671      4670      4669      4672
      4671      4669      4672      4669      4672      4673      4669      4672      4674
      4669      4672      4675      4673      4672      4674      4673      4672      4675
      4674      4672      4675      4672      4675      4676      4672      4675      4677
      4672      4675      4678      4676      4675      4677      4676      4675      4678
      4677      4675      4678      4675      4678      4679      4675      4678      4680
      4675      4678      4681      4679      4678      4680      4679      4678      4681
      4680      4678      4681      4678      4681      4682      4678      4681      4683
      4678      4681      4684      4682      4681      4683      4682      4681      4684
      4683      4681      4684      4681      4684      4685      4681      4684      4686
      4681      4684      4687      4685      4684      4686      4685      4684      4687
      4686      4684      4687      4684      4687      4688      4684      4687      4689
      4684      4687      4690      4688      4687      4689      4688      4687      4690
      4689      4687      4690      4687      4690      4691      4687      4690      4692
      4687      4690      4693      4691      4690      4692      4691      4690      4693
      4692      4690      4693      4690      4693      4694      4690      4693      4695
      4690      4693      4696      4694      4693      4695      4694      4693      4696
      4695      4693      4696      4693      4696      4697      4693      4696      4698
      4693      4696      4699      4697      4696      4698      4697      4696      4699
      4698      4696      4699      4696      4699      4700      4696      4699      4701
      4696      4699      4702      4700      4699      4701      4700      4699      4702
      4701      4699      4702      4699      4702      4703      4699      4702      4704
      4699      4702      4705      4703      4702      4704      4703      4702      4705
      4704      4702      4705      4702      4705      4706      4702      4705      4707
      4702      4705      4708      4706      4705      4707      4706      4705      4708
      4707      4705      4708      4711      4708      4705      4711      4708      4709
      4711      4708      4710      4705      4708      4709      4705      4708      4710
      4709      4708      4710      4708      4711      4712      4708      4711      4713
      4712      4711      4713      4711      4713      4714      4713      4714      4715
      4713      4714      4716      4713      4714      4717      4715      4714      4716
      4715      4714      4717      4716      4714      4717      4714      4717      4718
      4714      4717      4719      4714      4717      4746      4718      4717      4719
      4718      4717      4746      4719      4717      4746      4717      4719      4720
      4717      4719      4721      4717      4719      4722      4720      4719      4721
      4720      4719      4722      4721      4719      4722      4719      4722      4723
      4722      4723      4724      4722      4723      4744      4722      4723      4745
      4724      4723      4744      4724      4723      4745      4744      4723      4745
      4723      4724      4725      4724      4725      4726      4724      4725      4727
      4724      4725      4728      4726      4725      4727      4726      4725      4728
      4727      4725      4728      4725      4728      4729      4725      4728      4730
      4725      4728      4731      4729      4728      4730      4729      4728      4731
      4730      4728      4731      4728      4731      4732      4728      4731      4736
      4728      4731      4740      4732      4731      4736      4732      4731      4740
      4736      4731      4740      4731      4732      4733      4731      4732      4734
      4731      4732      4735      4733      4732      4734      4733      4732      4735
      4734      4732      4735      4731      4736      4737      4731      4736      4738
      4731      4736      4739      4737      4736      4738      4737      4736      4739
      4738      4736      4739      4731      4740      4741      4731      4740      4742
      4731      4740      4743      4741      4740      4742      4741      4740      4743
      4742      4740      4743      4717      4746      4747      4749      4747      4746
      4749      4747      4748      4746      4747      4748      4747      4749      4750
      4747      4749      4751      4747      4749      4752      4750      4749      4751
      4750      4749      4752      4751      4749      4752      4749      4752      4753
      4749      4752      4754      4749      4752      4755      4753      4752      4754
      4753      4752      4755      4754      4752      4755      4752      4755      4756
      4752      4755      4757      4752      4755      4758      4756      4755      4757
      4756      4755      4758      4757      4755      4758      4755      4758      4759
      4755      4758      4760      4755      4758      4761      4759      4758      4760
      4759      4758      4761      4760      4758      4761      4758      4761      4762
      4758      4761      4763      4758      4761      4764      4762      4761      4763
      4762      4761      4764      4763      4761      4764      4761      4764      4765
      4761      4764      4766      4761      4764      4767      4765      4764      4766
      4765      4764      4767      4766      4764      4767      4764      4767      4768
      4764      4767      4769      4764      4767      4770      4768      4767      4769
      4768      4767      4770      4769      4767      4770      4767      4770      4771
      4767      4770      4772      4771      4770      4772      4770      4772      4773
      4770      4772      4774      4773      4772      4774      4772      4774      4775
      4772      4774      4776      4772      4774      4777      4775      4774      4776
      4775      4774      4777      4776      4774      4777      4774      4777      4778
      4774      4777      4779      4774      4777      4780      4778      4777      4779
      4778      4777      4780      4779      4777      4780      4777      4780      4781
      4777      4780      4782      4777      4780      4783      4781      4780      4782
      4781      4780      4783      4782      4780      4783      4780      4783      4784
      4780      4783      4785      4780      4783      4786      4784      4783      4785
      4784      4783      4786      4785      4783      4786      4783      4786      4787
      4783      4786      4788      4783      4786      4789      4787      4786      4788
      4787      4786      4789      4788      4786      4789      4786      4789      4790
      4786      4789      4791      4786      4789      4792      4790      4789      4791
      4790      4789      4792      4791      4789      4792      4789      4792      4793
      4789      4792      4794      4789      4792      4795      4793      4792      4794
      4793      4792      4795      4794      4792      4795      4792      4795      4796
      4792      4795      4797      4792      4795      4798      4796      4795      4797
      4796      4795      4798      4797      4795      4798      4800      4799      4801
      4800      4799      4802      4800      4799      4803      4801      4799      4802
      4801      4799      4803      4802      4799      4803      4799      4803      4804
      4799      4803      4805      4799      4803      4806      4804      4803      4805
      4804      4803      4806      4805      4803      4806      4803      4806      4807
      4803      4806      4808      4803      4806      4809      4807      4806      4808
      4807      4806      4809      4808      4806      4809      4806      4809      4810
      4806      4809      4811      4806      4809      4812      4810      4809      4811
      4810      4809      4812      4811      4809      4812      4809      4812      4813
      4809      4812      4814      4809      4812      4815      4813      4812      4814
      4813      4812      4815      4814      4812      4815      4812      4815      4816
      4812      4815      4817      4812      4815      4818      4816      4815      4817
      4816      4815      4818      4817      4815      4818      4815      4818      4819
      4815      4818      4820      4815      4818      4821      4819      4818      4820
      4819      4818      4821      4820      4818      4821      4818      4821      4822
      4818      4821      4823      4818      4821      4824      4822      4821      4823
      4822      4821      4824      4823      4821      4824      4821      4824      4825
      4821      4824      4826      4821      4824      4827      4825      4824      4826
      4825      4824      4827      4826      4824      4827      4824      4827      4828
      4824      4827      4829      4824      4827      4830      4828      4827      4829
      4828      4827      4830      4829      4827      4830      4827      4830      4831
      4827      4830      4832      4827      4830      4833      4831      4830      4832
      4831      4830      4833      4832      4830      4833      4830      4833      4834
      4830      4833      4835      4830      4833      4836      4834      4833      4835
      4834      4833      4836      4835      4833      4836      4833      4836      4837
      4833      4836      4838      4833      4836      4839      4837      4836      4838
      4837      4836      4839      4838      4836      4839      4836      4839      4840
      4836      4839      4841      4836      4839      4842      4840      4839      4841
      4840      4839      4842      4841      4839      4842      4845      4842      4839
      4845      4842      4843      4845      4842      4844      4839      4842      4843
      4839      4842      4844      4843      4842      4844      4842      4845      4846
      4842      4845      4847      4846      4845      4847      4845      4847      4848
      4847      4848      4849      4847      4848      4850      4847      4848      4851
      4849      4848      4850      4849      4848      4851      4850      4848      4851
      4848      4851      4852      4848      4851      4853      4848      4851      4880
      4852      4851      4853      4852      4851      4880      4853      4851      4880
      4851      4853      4854      4851      4853      4855      4851      4853      4856
      4854      4853      4855      4854      4853      4856      4855      4853      4856
      4853      4856      4857      4856      4857      4858      4856      4857      4878
      4856      4857      4879      4858      4857      4878      4858      4857      4879
      4878      4857      4879      4857      4858      4859      4858      4859      4860
      4858      4859      4861      4858      4859      4862      4860      4859      4861
      4860      4859      4862      4861      4859      4862      4859      4862      4863
      4859      4862      4864      4859      4862      4865      4863      4862      4864
      4863      4862      4865      4864      4862      4865      4862      4865      4866
      4862      4865      4870      4862      4865      4874      4866      4865      4870
      4866      4865      4874      4870      4865      4874      4865      4866      4867
      4865      4866      4868      4865      4866      4869      4867      4866      4868
      4867      4866      4869      4868      4866      4869      4865      4870      4871
      4865      4870      4872      4865      4870      4873      4871      4870      4872
      4871      4870      4873      4872      4870      4873      4865      4874      4875
      4865      4874      4876      4865      4874      4877      4875      4874      4876
      4875      4874      4877      4876      4874      4877      4851      4880      4881
      4883      4881      4880      4883      4881      4882      4880      4881      4882
      4881      4883      4884      4881      4883      4885      4881      4883      4886
      4884      4883      4885      4884      4883      4886      4885      4883      4886
      4883      4886      4887      4883      4886      4888      4883      4886      4889
      4887      4886      4888      4887      4886      4889      4888      4886      4889
      4886      4889      4890      4886      4889      4891      4886      4889      4892
      4890      4889      4891      4890      4889      4892      4891      4889      4892
      4889      4892      4893      4889      4892      4894      4889      4892      4895
      4893      4892      4894      4893      4892      4895      4894      4892      4895
      4892      4895      4896      4892      4895      4897      4892      4895      4898
      4896      4895      4897      4896      4895      4898      4897      4895      4898
      4895      4898      4899      4895      4898      4900      4895      4898      4901
      4899      4898      4900      4899      4898      4901      4900      4898      4901
      4898      4901      4902      4898      4901      4903      4898      4901      4904
      4902      4901      4903      4902      4901      4904      4903      4901      4904
      4901      4904      4905      4901      4904      4906      4905      4904      4906
      4904      4906      4907      4904      4906      4908      4907      4906      4908
      4906      4908      4909      4906      4908      4910      4906      4908      4911
      4909      4908      4910      4909      4908      4911      4910      4908      4911
      4908      4911      4912      4908      4911      4913      4908      4911      4914
      4912      4911      4913      4912      4911      4914      4913      4911      4914
      4911      4914      4915      4911      4914      4916      4911      4914      4917
      4915      4914      4916      4915      4914      4917      4916      4914      4917
      4914      4917      4918      4914      4917      4919      4914      4917      4920
      4918      4917      4919      4918      4917      4920      4919      4917      4920
      4917      4920      4921      4917      4920      4922      4917      4920      4923
      4921      4920      4922      4921      4920      4923      4922      4920      4923
      4920      4923      4924      4920      4923      4925      4920      4923      4926
      4924      4923      4925      4924      4923      4926      4925      4923      4926
      4923      4926      4927      4923      4926      4928      4923      4926      4929
      4927      4926      4928      4927      4926      4929      4928      4926      4929
      4926      4929      4930      4926      4929      4931      4926      4929      4932
      4930      4929      4931      4930      4929      4932      4931      4929      4932
      4934      4933      4935      4934      4933      4936      4934      4933      4937
      4935      4933      4936      4935      4933      4937      4936      4933      4937
      4933      4937      4938      4933      4937      4939      4933      4937      4940
      4938      4937      4939      4938      4937      4940      4939      4937      4940
      4937      4940      4941      4937      4940      4942      4937      4940      4943
      4941      4940      4942      4941      4940      4943      4942      4940      4943
      4940      4943      4944      4940      4943      4945      4940      4943      4946
      4944      4943      4945      4944      4943      4946      4945      4943      4946
      4943      4946      4947      4943      4946      4948      4943      4946      4949
      4947      4946      4948      4947      4946      4949      4948      4946      4949
      4946      4949      4950      4946      4949      4951      4946      4949      4952
      4950      4949      4951      4950      4949      4952      4951      4949      4952
      4949      4952      4953      4949      4952      4954      4949      4952      4955
      4953      4952      4954      4953      4952      4955      4954      4952      4955
      4952      4955      4956      4952      4955      4957      4952      4955      4958
      4956      4955      4957      4956      4955      4958      4957      4955      4958
      4955      4958      4959      4955      4958      4960      4955      4958      4961
      4959      4958      4960      4959      4958      4961      4960      4958      4961
      4958      4961      4962      4958      4961      4963      4958      4961      4964
      4962      4961      4963      4962      4961      4964      4963      4961      4964
      4961      4964      4965      4961      4964      4966      4961      4964      4967
      4965      4964      4966      4965      4964      4967      4966      4964      4967
      4964      4967      4968      4964      4967      4969      4964      4967      4970
      4968      4967      4969      4968      4967      4970      4969      4967      4970
      4967      4970      4971      4967      4970      4972      4967      4970      4973
      4971      4970      4972      4971      4970      4973      4972      4970      4973
      4970      4973      4974      4970      4973      4975      4970      4973      4976
      4974      4973      4975      4974      4973      4976      4975      4973      4976
      4979      4976      4973      4979      4976      4977      4979      4976      4978
      4973      4976      4977      4973      4976      4978      4977      4976      4978
      4976      4979      4980      4976      4979      4981      4980      4979      4981
      4979      4981      4982      4981      4982      4983      4981      4982      4984
      4981      4982      4985      4983      4982      4984      4983      4982      4985
      4984      4982      4985      4982      4985      4986      4982      4985      4987
      4982      4985      5014      4986      4985      4987      4986      4985      5014
      4987      4985      5014      4985      4987      4988      4985      4987      4989
      4985      4987      4990      4988      4987      4989      4988      4987      4990
      4989      4987      4990      4987      4990      4991      4990      4991      4992
      4990      4991      5012      4990      4991      5013      4992      4991      5012
      4992      4991      5013      5012      4991      5013      4991      4992      4993
      4992      4993      4994      4992      4993      4995      4992      4993      4996
      4994      4993      4995      4994      4993      4996      4995      4993      4996
      4993      4996      4997      4993      4996      4998      4993      4996      4999
      4997      4996      4998      4997      4996      4999      4998      4996      4999
      4996      4999      5000      4996      4999      5004      4996      4999      5008
      5000      4999      5004      5000      4999      5008      5004      4999      5008
      4999      5000      5001      4999      5000      5002      4999      5000      5003
      5001      5000      5002      5001      5000      5003      5002      5000      5003
      4999      5004      5005      4999      5004      5006      4999      5004      5007
      5005      5004      5006      5005      5004      5007      5006      5004      5007
      4999      5008      5009      4999      5008      5010      4999      5008      5011
      5009      5008      5010      5009      5008      5011      5010      5008      5011
      4985      5014      5015      5017      5015      5014      5017      5015      5016
      5014      5015      5016      5015      5017      5018      5015      5017      5019
      5015      5017      5020      5018      5017      5019      5018      5017      5020
      5019      5017      5020      5017      5020      5021      5017      5020      5022
      5017      5020      5023      5021      5020      5022      5021      5020      5023
      5022      5020      5023      5020      5023      5024      5020      5023      5025
      5020      5023      5026      5024      5023      5025      5024      5023      5026
      5025      5023      5026      5023      5026      5027      5023      5026      5028
      5023      5026      5029      5027      5026      5028      5027      5026      5029
      5028      5026      5029      5026      5029      5030      5026      5029      5031
      5026      5029      5032      5030      5029      5031      5030      5029      5032
      5031      5029      5032      5029      5032      5033      5029      5032      5034
      5029      5032      5035      5033      5032      5034      5033      5032      5035
      5034      5032      5035      5032      5035      5036      5032      5035      5037
      5032      5035      5038      5036      5035      5037      5036      5035      5038
      5037      5035      5038      5035      5038      5039      5035      5038      5040
      5039      5038      5040      5038      5040      5041      5038      5040      5042
      5041      5040      5042      5040      5042      5043      5040      5042      5044
      5040      5042      5045      5043      5042      5044      5043      5042      5045
      5044      5042      5045      5042      5045      5046      5042      5045      5047
      5042      5045      5048      5046      5045      5047      5046      5045      5048
      5047      5045      5048      5045      5048      5049      5045      5048      5050
      5045      5048      5051      5049      5048      5050      5049      5048      5051
      5050      5048      5051      5048      5051      5052      5048      5051      5053
      5048      5051      5054      5052      5051      5053      5052      5051      5054
      5053      5051      5054      5051      5054      5055      5051      5054      5056
      5051      5054      5057      5055      5054      5056      5055      5054      5057
      5056      5054      5057      5054      5057      5058      5054      5057      5059
      5054      5057      5060      5058      5057      5059      5058      5057      5060
      5059      5057      5060      5057      5060      5061      5057      5060      5062
      5057      5060      5063      5061      5060      5062      5061      5060      5063
      5062      5060      5063      5060      5063      5064      5060      5063      5065
      5060      5063      5066      5064      5063      5065      5064      5063      5066
      5065      5063      5066      5068      5067      5069      5068      5067      5070
      5068      5067      5071      5069      5067      5070      5069      5067      5071
      5070      5067      5071      5067      5071      5072      5067      5071      5073
      5067      5071      5074      5072      5071      5073      5072      5071      5074
      5073      5071      5074      5071      5074      5075      5071      5074      5076
      5071      5074      5077      5075      5074      5076      5075      5074      5077
      5076      5074      5077      5074      5077      5078      5074      5077      5079
      5074      5077      5080      5078      5077      5079      5078      5077      5080
      5079      5077      5080      5077      5080      5081      5077      5080      5082
      5077      5080      5083      5081      5080      5082      5081      5080      5083
      5082      5080      5083      5080      5083      5084      5080      5083      5085
      5080      5083      5086      5084      5083      5085      5084      5083      5086
      5085      5083      5086      5083      5086      5087      5083      5086      5088
      5083      5086      5089      5087      5086      5088      5087      5086      5089
      5088      5086      5089      5086      5089      5090      5086      5089      5091
      5086      5089      5092      5090      5089      5091      5090      5089      5092
      5091      5089      5092      5089      5092      5093      5089      5092      5094
      5089      5092      5095      5093      5092      5094      5093      5092      5095
      5094      5092      5095      5092      5095      5096      5092      5095      5097
      5092      5095      5098      5096      5095      5097      5096      5095      5098
      5097      5095      5098      5095      5098      5099      5095      5098      5100
      5095      5098      5101      5099      5098      5100      5099      5098      5101
      5100      5098      5101      5098      5101      5102      5098      5101      5103
      5098      5101      5104      5102      5101      5103      5102      5101      5104
      5103      5101      5104      5101      5104      5105      5101      5104      5106
      5101      5104      5107      5105      5104      5106      5105      5104      5107
      5106      5104      5107      5104      5107      5108      5104      5107      5109
      5104      5107      5110      5108      5107      5109      5108      5107      5110
      5109      5107      5110      5113      5110      5107      5113      5110      5111
      5113      5110      5112      5107      5110      5111      5107      5110      5112
      5111      5110      5112      5110      5113      5114      5110      5113      5115
      5114      5113      5115      5113      5115      5116      5115      5116      5117
      5115      5116      5118      5115      5116      5119      5117      5116      5118
      5117      5116      5119      5118      5116      5119      5116      5119      5120
      5116      5119      5121      5116      5119      5148      5120      5119      5121
      5120      5119      5148      5121      5119      5148      5119      5121      5122
      5119      5121      5123      5119      5121      5124      5122      5121      5123
      5122      5121      5124      5123      5121      5124      5121      5124      5125
      5124      5125      5126      5124      5125      5146      5124      5125      5147
      5126      5125      5146      5126      5125      5147      5146      5125      5147
      5125      5126      5127      5126      5127      5128      5126      5127      5129
      5126      5127      5130      5128      5127      5129      5128      5127      5130
      5129      5127      5130      5127      5130      5131      5127      5130      5132
      5127      5130      5133      5131      5130      5132      5131      5130      5133
      5132      5130      5133      5130      5133      5134      5130      5133      5138
      5130      5133      5142      5134      5133      5138      5134      5133      5142
      5138      5133      5142      5133      5134      5135      5133      5134      5136
      5133      5134      5137      5135      5134      5136      5135      5134      5137
      5136      5134      5137      5133      5138      5139      5133      5138      5140
      5133      5138      5141      5139      5138      5140      5139      5138      5141
      5140      5138      5141      5133      5142      5143      5133      5142      5144
      5133      5142      5145      5143      5142      5144      5143      5142      5145
      5144      5142      5145      5119      5148      5149      5151      5149      5148
      5151      5149      5150      5148      5149      5150      5149      5151      5152
      5149      5151      5153      5149      5151      5154      5152      5151      5153
      5152      5151      5154      5153      5151      5154      5151      5154      5155
      5151      5154      5156      5151      5154      5157      5155      5154      5156
      5155      5154      5157      5156      5154      5157      5154      5157      5158
      5154      5157      5159      5154      5157      5160      5158      5157      5159
      5158      5157      5160      5159      5157      5160      5157      5160      5161
      5157      5160      5162      5157      5160      5163      5161      5160      5162
      5161      5160      5163      5162      5160      5163      5160      5163      5164
      5160      5163      5165      5160      5163      5166      5164      5163      5165
      5164      5163      5166      5165      5163      5166      5163      5166      5167
      5163      5166      5168      5163      5166      5169      5167      5166      5168
      5167      5166      5169      5168      5166      5169      5166      5169      5170
      5166      5169      5171      5166      5169      5172      5170      5169      5171
      5170      5169      5172      5171      5169      5172      5169      5172      5173
      5169      5172      5174      5173      5172      5174      5172      5174      5175
      5172      5174      5176      5175      5174      5176      5174      5176      5177
      5174      5176      5178      5174      5176      5179      5177      5176      5178
      5177      5176      5179      5178      5176      5179      5176      5179      5180
      5176      5179      5181      5176      5179      5182      5180      5179      5181
      5180      5179      5182      5181      5179      5182      5179      5182      5183
      5179      5182      5184      5179      5182      5185      5183      5182      5184
      5183      5182      5185      5184      5182      5185      5182      5185      5186
      5182      5185      5187      5182      5185      5188      5186      5185      5187
      5186      5185      5188      5187      5185      5188      5185      5188      5189
      5185      5188      5190      5185      5188      5191      5189      5188      5190
      5189      5188      5191      5190      5188      5191      5188      5191      5192
      5188      5191      5193      5188      5191      5194      5192      5191      5193
      5192      5191      5194      5193      5191      5194      5191      5194      5195
      5191      5194      5196      5191      5194      5197      5195      5194      5196
      5195      5194      5197      5196      5194      5197      5194      5197      5198
      5194      5197      5199      5194      5197      5200      5198      5197      5199
      5198      5197      5200      5199      5197      5200      5202      5201      5203
      5202      5201      5204      5202      5201      5205      5203      5201      5204
      5203      5201      5205      5204      5201      5205      5201      5205      5206
      5201      5205      5207      5201      5205      5208      5206      5205      5207
      5206      5205      5208      5207      5205      5208      5205      5208      5209
      5205      5208      5210      5205      5208      5211      5209      5208      5210
      5209      5208      5211      5210      5208      5211      5208      5211      5212
      5208      5211      5213      5208      5211      5214      5212      5211      5213
      5212      5211      5214      5213      5211      5214      5211      5214      5215
      5211      5214      5216      5211      5214      5217      5215      5214      5216
      5215      5214      5217      5216      5214      5217      5214      5217      5218
      5214      5217      5219      5214      5217      5220      5218      5217      5219
      5218      5217      5220      5219      5217      5220      5217      5220      5221
      5217      5220      5222      5217      5220      5223      5221      5220      5222
      5221      5220      5223      5222      5220      5223      5220      5223      5224
      5220      5223      5225      5220      5223      5226      5224      5223      5225
      5224      5223      5226      5225      5223      5226      5223      5226      5227
      5223      5226      5228      5223      5226      5229      5227      5226      5228
      5227      5226      5229      5228      5226      5229      5226      5229      5230
      5226      5229      5231      5226      5229      5232      5230      5229      5231
      5230      5229      5232      5231      5229      5232      5229      5232      5233
      5229      5232      5234      5229      5232      5235      5233      5232      5234
      5233      5232      5235      5234      5232      5235      5232      5235      5236
      5232      5235      5237      5232      5235      5238      5236      5235      5237
      5236      5235      5238      5237      5235      5238      5235      5238      5239
      5235      5238      5240      5235      5238      5241      5239      5238      5240
      5239      5238      5241      5240      5238      5241      5238      5241      5242
      5238      5241      5243      5238      5241      5244      5242      5241      5243
      5242      5241      5244      5243      5241      5244      5247      5244      5241
      5247      5244      5245      5247      5244      5246      5241      5244      5245
      5241      5244      5246      5245      5244      5246      5244      5247      5248
      5244      5247      5249      5248      5247      5249      5247      5249      5250
      5249      5250      5251      5249      5250      5252      5249      5250      5253
      5251      5250      5252      5251      5250      5253      5252      5250      5253
      5250      5253      5254      5250      5253      5255      5250      5253      5282
      5254      5253      5255      5254      5253      5282      5255      5253      5282
      5253      5255      5256      5253      5255      5257      5253      5255      5258
      5256      5255      5257      5256      5255      5258      5257      5255      5258
      5255      5258      5259      5258      5259      5260      5258      5259      5280
      5258      5259      5281      5260      5259      5280      5260      5259      5281
      5280      5259      5281      5259      5260      5261      5260      5261      5262
      5260      5261      5263      5260      5261      5264      5262      5261      5263
      5262      5261      5264      5263      5261      5264      5261      5264      5265
      5261      5264      5266      5261      5264      5267      5265      5264      5266
      5265      5264      5267      5266      5264      5267      5264      5267      5268
      5264      5267      5272      5264      5267      5276      5268      5267      5272
      5268      5267      5276      5272      5267      5276      5267      5268      5269
      5267      5268      5270      5267      5268      5271      5269      5268      5270
      5269      5268      5271      5270      5268      5271      5267      5272      5273
      5267      5272      5274      5267      5272      5275      5273      5272      5274
      5273      5272      5275      5274      5272      5275      5267      5276      5277
      5267      5276      5278      5267      5276      5279      5277      5276      5278
      5277      5276      5279      5278      5276      5279      5253      5282      5283
      5285      5283      5282      5285      5283      5284      5282      5283      5284
      5283      5285      5286      5283      5285      5287      5283      5285      5288
      5286      5285      5287      5286      5285      5288      5287      5285      5288
      5285      5288      5289      5285      5288      5290      5285      5288      5291
      5289      5288      5290      5289      5288      5291      5290      5288      5291
      5288      5291      5292      5288      5291      5293      5288      5291      5294
      5292      5291      5293      5292      5291      5294      5293      5291      5294
      5291      5294      5295      5291      5294      5296      5291      5294      5297
      5295      5294      5296      5295      5294      5297      5296      5294      5297
      5294      5297      5298      5294      5297      5299      5294      5297      5300
      5298      5297      5299      5298      5297      5300      5299      5297      5300
      5297      5300      5301      5297      5300      5302      5297      5300      5303
      5301      5300      5302      5301      5300      5303      5302      5300      5303
      5300      5303      5304      5300      5303      5305      5300      5303      5306
      5304      5303      5305      5304      5303      5306      5305      5303      5306
      5303      5306      5307      5303      5306      5308      5307      5306      5308
      5306      5308      5309      5306      5308      5310      5309      5308      5310
      5308      5310      5311      5308      5310      5312      5308      5310      5313
      5311      5310      5312      5311      5310      5313      5312      5310      5313
      5310      5313      5314      5310      5313      5315      5310      5313      5316
      5314      5313      5315      5314      5313      5316      5315      5313      5316
      5313      5316      5317      5313      5316      5318      5313      5316      5319
      5317      5316      5318      5317      5316      5319      5318      5316      5319
      5316      5319      5320      5316      5319      5321      5316      5319      5322
      5320      5319      5321      5320      5319      5322      5321      5319      5322
      5319      5322      5323      5319      5322      5324      5319      5322      5325
      5323      5322      5324      5323      5322      5325      5324      5322      5325
      5322      5325      5326      5322      5325      5327      5322      5325      5328
      5326      5325      5327      5326      5325      5328      5327      5325      5328
      5325      5328      5329      5325      5328      5330      5325      5328      5331
      5329      5328      5330      5329      5328      5331      5330      5328      5331
      5328      5331      5332      5328      5331      5333      5328      5331      5334
      5332      5331      5333      5332      5331      5334      5333      5331      5334
      5336      5335      5337      5336      5335      5338      5336      5335      5339
      5337      5335      5338      5337      5335      5339      5338      5335      5339
      5335      5339      5340      5335      5339      5341      5335      5339      5342
      5340      5339      5341      5340      5339      5342      5341      5339      5342
      5339      5342      5343      5339      5342      5344      5339      5342      5345
      5343      5342      5344      5343      5342      5345      5344      5342      5345
      5342      5345      5346      5342      5345      5347      5342      5345      5348
      5346      5345      5347      5346      5345      5348      5347      5345      5348
      5345      5348      5349      5345      5348      5350      5345      5348      5351
      5349      5348      5350      5349      5348      5351      5350      5348      5351
      5348      5351      5352      5348      5351      5353      5348      5351      5354
      5352      5351      5353      5352      5351      5354      5353      5351      5354
      5351      5354      5355      5351      5354      5356      5351      5354      5357
      5355      5354      5356      5355      5354      5357      5356      5354      5357
      5354      5357      5358      5354      5357      5359      5354      5357      5360
      5358      5357      5359      5358      5357      5360      5359      5357      5360
      5357      5360      5361      5357      5360      5362      5357      5360      5363
      5361      5360      5362      5361      5360      5363      5362      5360      5363
      5360      5363      5364      5360      5363      5365      5360      5363      5366
      5364      5363      5365      5364      5363      5366      5365      5363      5366
      5363      5366      5367      5363      5366      5368      5363      5366      5369
      5367      5366      5368      5367      5366      5369      5368      5366      5369
      5366      5369      5370      5366      5369      5371      5366      5369      5372
      5370      5369      5371      5370      5369      5372      5371      5369      5372
      5369      5372      5373      5369      5372      5374      5369      5372      5375
      5373      5372      5374      5373      5372      5375      5374      5372      5375
      5372      5375      5376      5372      5375      5377      5372      5375      5378
      5376      5375      5377      5376      5375      5378      5377      5375      5378
      5381      5378      5375      5381      5378      5379      5381      5378      5380
      5375      5378      5379      5375      5378      5380      5379      5378      5380
      5378      5381      5382      5378      5381      5383      5382      5381      5383
      5381      5383      5384      5383      5384      5385      5383      5384      5386
      5383      5384      5387      5385      5384      5386      5385      5384      5387
      5386      5384      5387      5384      5387      5388      5384      5387      5389
      5384      5387      5416      5388      5387      5389      5388      5387      5416
      5389      5387      5416      5387      5389      5390      5387      5389      5391
      5387      5389      5392      5390      5389      5391      5390      5389      5392
      5391      5389      5392      5389      5392      5393      5392      5393      5394
      5392      5393      5414      5392      5393      5415      5394      5393      5414
      5394      5393      5415      5414      5393      5415      5393      5394      5395
      5394      5395      5396      5394      5395      5397      5394      5395      5398
      5396      5395      5397      5396      5395      5398      5397      5395      5398
      5395      5398      5399      5395      5398      5400      5395      5398      5401
      5399      5398      5400      5399      5398      5401      5400      5398      5401
      5398      5401      5402      5398      5401      5406      5398      5401      5410
      5402      5401      5406      5402      5401      5410      5406      5401      5410
      5401      5402      5403      5401      5402      5404      5401      5402      5405
      5403      5402      5404      5403      5402      5405      5404      5402      5405
      5401      5406      5407      5401      5406      5408      5401      5406      5409
      5407      5406      5408      5407      5406      5409      5408      5406      5409
      5401      5410      5411      5401      5410      5412      5401      5410      5413
      5411      5410      5412      5411      5410      5413      5412      5410      5413
      5387      5416      5417      5419      5417      5416      5419      5417      5418
      5416      5417      5418      5417      5419      5420      5417      5419      5421
      5417      5419      5422      5420      5419      5421      5420      5419      5422
      5421      5419      5422      5419      5422      5423      5419      5422      5424
      5419      5422      5425      5423      5422      5424      5423      5422      5425
      5424      5422      5425      5422      5425      5426      5422      5425      5427
      5422      5425      5428      5426      5425      5427      5426      5425      5428
      5427      5425      5428      5425      5428      5429      5425      5428      5430
      5425      5428      5431      5429      5428      5430      5429      5428      5431
      5430      5428      5431      5428      5431      5432      5428      5431      5433
      5428      5431      5434      5432      5431      5433      5432      5431      5434
      5433      5431      5434      5431      5434      5435      5431      5434      5436
      5431      5434      5437      5435      5434      5436      5435      5434      5437
      5436      5434      5437      5434      5437      5438      5434      5437      5439
      5434      5437      5440      5438      5437      5439      5438      5437      5440
      5439      5437      5440      5437      5440      5441      5437      5440      5442
      5441      5440      5442      5440      5442      5443      5440      5442      5444
      5443      5442      5444      5442      5444      5445      5442      5444      5446
      5442      5444      5447      5445      5444      5446      5445      5444      5447
      5446      5444      5447      5444      5447      5448      5444      5447      5449
      5444      5447      5450      5448      5447      5449      5448      5447      5450
      5449      5447      5450      5447      5450      5451      5447      5450      5452
      5447      5450      5453      5451      5450      5452      5451      5450      5453
      5452      5450      5453      5450      5453      5454      5450      5453      5455
      5450      5453      5456      5454      5453      5455      5454      5453      5456
      5455      5453      5456      5453      5456      5457      5453      5456      5458
      5453      5456      5459      5457      5456      5458      5457      5456      5459
      5458      5456      5459      5456      5459      5460      5456      5459      5461
      5456      5459      5462      5460      5459      5461      5460      5459      5462
      5461      5459      5462      5459      5462      5463      5459      5462      5464
      5459      5462      5465      5463      5462      5464      5463      5462      5465
      5464      5462      5465      5462      5465      5466      5462      5465      5467
      5462      5465      5468      5466      5465      5467      5466      5465      5468
      5467      5465      5468      5470      5469      5471      5470      5469      5472
      5470      5469      5473      5471      5469      5472      5471      5469      5473
      5472      5469      5473      5469      5473      5474      5469      5473      5475
      5469      5473      5476      5474      5473      5475      5474      5473      5476
      5475      5473      5476      5473      5476      5477      5473      5476      5478
      5473      5476      5479      5477      5476      5478      5477      5476      5479
      5478      5476      5479      5476      5479      5480      5476      5479      5481
      5476      5479      5482      5480      5479      5481      5480      5479      5482
      5481      5479      5482      5479      5482      5483      5479      5482      5484
      5479      5482      5485      5483      5482      5484      5483      5482      5485
      5484      5482      5485      5482      5485      5486      5482      5485      5487
      5482      5485      5488      5486      5485      5487      5486      5485      5488
      5487      5485      5488      5485      5488      5489      5485      5488      5490
      5485      5488      5491      5489      5488      5490      5489      5488      5491
      5490      5488      5491      5488      5491      5492      5488      5491      5493
      5488      5491      5494      5492      5491      5493      5492      5491      5494
      5493      5491      5494      5491      5494      5495      5491      5494      5496
      5491      5494      5497      5495      5494      5496      5495      5494      5497
      5496      5494      5497      5494      5497      5498      5494      5497      5499
      5494      5497      5500      5498      5497      5499      5498      5497      5500
      5499      5497      5500      5497      5500      5501      5497      5500      5502
      5497      5500      5503      5501      5500      5502      5501      5500      5503
      5502      5500      5503      5500      5503      5504      5500      5503      5505
      5500      5503      5506      5504      5503      5505      5504      5503      5506
      5505      5503      5506      5503      5506      5507      5503      5506      5508
      5503      5506      5509      5507      5506      5508      5507      5506      5509
      5508      5506      5509      5506      5509      5510      5506      5509      5511
      5506      5509      5512      5510      5509      5511      5510      5509      5512
      5511      5509      5512      5515      5512      5509      5515      5512      5513
      5515      5512      5514      5509      5512      5513      5509      5512      5514
      5513      5512      5514      5512      5515      5516      5512      5515      5517
      5516      5515      5517      5515      5517      5518      5517      5518      5519
      5517      5518      5520      5517      5518      5521      5519      5518      5520
      5519      5518      5521      5520      5518      5521      5518      5521      5522
      5518      5521      5523      5518      5521      5550      5522      5521      5523
      5522      5521      5550      5523      5521      5550      5521      5523      5524
      5521      5523      5525      5521      5523      5526      5524      5523      5525
      5524      5523      5526      5525      5523      5526      5523      5526      5527
      5526      5527      5528      5526      5527      5548      5526      5527      5549
      5528      5527      5548      5528      5527      5549      5548      5527      5549
      5527      5528      5529      5528      5529      5530      5528      5529      5531
      5528      5529      5532      5530      5529      5531      5530      5529      5532
      5531      5529      5532      5529      5532      5533      5529      5532      5534
      5529      5532      5535      5533      5532      5534      5533      5532      5535
      5534      5532      5535      5532      5535      5536      5532      5535      5540
      5532      5535      5544      5536      5535      5540      5536      5535      5544
      5540      5535      5544      5535      5536      5537      5535      5536      5538
      5535      5536      5539      5537      5536      5538      5537      5536      5539
      5538      5536      5539      5535      5540      5541      5535      5540      5542
      5535      5540      5543      5541      5540      5542      5541      5540      5543
      5542      5540      5543      5535      5544      5545      5535      5544      5546
      5535      5544      5547      5545      5544      5546      5545      5544      5547
      5546      5544      5547      5521      5550      5551      5553      5551      5550
      5553      5551      5552      5550      5551      5552      5551      5553      5554
      5551      5553      5555      5551      5553      5556      5554      5553      5555
      5554      5553      5556      5555      5553      5556      5553      5556      5557
      5553      5556      5558      5553      5556      5559      5557      5556      5558
      5557      5556      5559      5558      5556      5559      5556      5559      5560
      5556      5559      5561      5556      5559      5562      5560      5559      5561
      5560      5559      5562      5561      5559      5562      5559      5562      5563
      5559      5562      5564      5559      5562      5565      5563      5562      5564
      5563      5562      5565      5564      5562      5565      5562      5565      5566
      5562      5565      5567      5562      5565      5568      5566      5565      5567
      5566      5565      5568      5567      5565      5568      5565      5568      5569
      5565      5568      5570      5565      5568      5571      5569      5568      5570
      5569      5568      5571      5570      5568      5571      5568      5571      5572
      5568      5571      5573      5568      5571      5574      5572      5571      5573
      5572      5571      5574      5573      5571      5574      5571      5574      5575
      5571      5574      5576      5575      5574      5576      5574      5576      5577
      5574      5576      5578      5577      5576      5578      5576      5578      5579
      5576      5578      5580      5576      5578      5581      5579      5578      5580
      5579      5578      5581      5580      5578      5581      5578      5581      5582
      5578      5581      5583      5578      5581      5584      5582      5581      5583
      5582      5581      5584      5583      5581      5584      5581      5584      5585
      5581      5584      5586      5581      5584      5587      5585      5584      5586
      5585      5584      5587      5586      5584      5587      5584      5587      5588
      5584      5587      5589      5584      5587      5590      5588      5587      5589
      5588      5587      5590      5589      5587      5590      5587      5590      5591
      5587      5590      5592      5587      5590      5593      5591      5590      5592
      5591      5590      5593      5592      5590      5593      5590      5593      5594
      5590      5593      5595      5590      5593      5596      5594      5593      5595
      5594      5593      5596      5595      5593      5596      5593      5596      5597
      5593      5596      5598      5593      5596      5599      5597      5596      5598
      5597      5596      5599      5598      5596      5599      5596      5599      5600
      5596      5599      5601      5596      5599      5602      5600      5599      5601
      5600      5599      5602      5601      5599      5602      5604      5603      5605
      5604      5603      5606      5604      5603      5607      5605      5603      5606
      5605      5603      5607      5606      5603      5607      5603      5607      5608
      5603      5607      5609      5603      5607      5610      5608      5607      5609
      5608      5607      5610      5609      5607      5610      5607      5610      5611
      5607      5610      5612      5607      5610      5613      5611      5610      5612
      5611      5610      5613      5612      5610      5613      5610      5613      5614
      5610      5613      5615      5610      5613      5616      5614      5613      5615
      5614      5613      5616      5615      5613      5616      5613      5616      5617
      5613      5616      5618      5613      5616      5619      5617      5616      5618
      5617      5616      5619      5618      5616      5619      5616      5619      5620
      5616      5619      5621      5616      5619      5622      5620      5619      5621
      5620      5619      5622      5621      5619      5622      5619      5622      5623
      5619      5622      5624      5619      5622      5625      5623      5622      5624
      5623      5622      5625      5624      5622      5625      5622      5625      5626
      5622      5625      5627      5622      5625      5628      5626      5625      5627
      5626      5625      5628      5627      5625      5628      5625      5628      5629
      5625      5628      5630      5625      5628      5631      5629      5628      5630
      5629      5628      5631      5630      5628      5631      5628      5631      5632
      5628      5631      5633      5628      5631      5634      5632      5631      5633
      5632      5631      5634      5633      5631      5634      5631      5634      5635
      5631      5634      5636      5631      5634      5637      5635      5634      5636
      5635      5634      5637      5636      5634      5637      5634      5637      5638
      5634      5637      5639      5634      5637      5640      5638      5637      5639
      5638      5637      5640      5639      5637      5640      5637      5640      5641
      5637      5640      5642      5637      5640      5643      5641      5640      5642
      5641      5640      5643      5642      5640      5643      5640      5643      5644
      5640      5643      5645      5640      5643      5646      5644      5643      5645
      5644      5643      5646      5645      5643      5646      5649      5646      5643
      5649      5646      5647      5649      5646      5648      5643      5646      5647
      5643      5646      5648      5647      5646      5648      5646      5649      5650
      5646      5649      5651      5650      5649      5651      5649      5651      5652
      5651      5652      5653      5651      5652      5654      5651      5652      5655
      5653      5652      5654      5653      5652      5655      5654      5652      5655
      5652      5655      5656      5652      5655      5657      5652      5655      5684
      5656      5655      5657      5656      5655      5684      5657      5655      5684
      5655      5657      5658      5655      5657      5659      5655      5657      5660
      5658      5657      5659      5658      5657      5660      5659      5657      5660
      5657      5660      5661      5660      5661      5662      5660      5661      5682
      5660      5661      5683      5662      5661      5682      5662      5661      5683
      5682      5661      5683      5661      5662      5663      5662      5663      5664
      5662      5663      5665      5662      5663      5666      5664      5663      5665
      5664      5663      5666      5665      5663      5666      5663      5666      5667
      5663      5666      5668      5663      5666      5669      5667      5666      5668
      5667      5666      5669      5668      5666      5669      5666      5669      5670
      5666      5669      5674      5666      5669      5678      5670      5669      5674
      5670      5669      5678      5674      5669      5678      5669      5670      5671
      5669      5670      5672      5669      5670      5673      5671      5670      5672
      5671      5670      5673      5672      5670      5673      5669      5674      5675
      5669      5674      5676      5669      5674      5677      5675      5674      5676
      5675      5674      5677      5676      5674      5677      5669      5678      5679
      5669      5678      5680      5669      5678      5681      5679      5678      5680
      5679      5678      5681      5680      5678      5681      5655      5684      5685
      5687      5685      5684      5687      5685      5686      5684      5685      5686
      5685      5687      5688      5685      5687      5689      5685      5687      5690
      5688      5687      5689      5688      5687      5690      5689      5687      5690
      5687      5690      5691      5687      5690      5692      5687      5690      5693
      5691      5690      5692      5691      5690      5693      5692      5690      5693
      5690      5693      5694      5690      5693      5695      5690      5693      5696
      5694      5693      5695      5694      5693      5696      5695      5693      5696
      5693      5696      5697      5693      5696      5698      5693      5696      5699
      5697      5696      5698      5697      5696      5699      5698      5696      5699
      5696      5699      5700      5696      5699      5701      5696      5699      5702
      5700      5699      5701      5700      5699      5702      5701      5699      5702
      5699      5702      5703      5699      5702      5704      5699      5702      5705
      5703      5702      5704      5703      5702      5705      5704      5702      5705
      5702      5705      5706      5702      5705      5707      5702      5705      5708
      5706      5705      5707      5706      5705      5708      5707      5705      5708
      5705      5708      5709      5705      5708      5710      5709      5708      5710
      5708      5710      5711      5708      5710      5712      5711      5710      5712
      5710      5712      5713      5710      5712      5714      5710      5712      5715
      5713      5712      5714      5713      5712      5715      5714      5712      5715
      5712      5715      5716      5712      5715      5717      5712      5715      5718
      5716      5715      5717      5716      5715      5718      5717      5715      5718
      5715      5718      5719      5715      5718      5720      5715      5718      5721
      5719      5718      5720      5719      5718      5721      5720      5718      5721
      5718      5721      5722      5718      5721      5723      5718      5721      5724
      5722      5721      5723      5722      5721      5724      5723      5721      5724
      5721      5724      5725      5721      5724      5726      5721      5724      5727
      5725      5724      5726      5725      5724      5727      5726      5724      5727
      5724      5727      5728      5724      5727      5729      5724      5727      5730
      5728      5727      5729      5728      5727      5730      5729      5727      5730
      5727      5730      5731      5727      5730      5732      5727      5730      5733
      5731      5730      5732      5731      5730      5733      5732      5730      5733
      5730      5733      5734      5730      5733      5735      5730      5733      5736
      5734      5733      5735      5734      5733      5736      5735      5733      5736
      5738      5737      5739      5738      5737      5740      5738      5737      5741
      5739      5737      5740      5739      5737      5741      5740      5737      5741
      5737      5741      5742      5737      5741      5743      5737      5741      5744
      5742      5741      5743      5742      5741      5744      5743      5741      5744
      5741      5744      5745      5741      5744      5746      5741      5744      5747
      5745      5744      5746      5745      5744      5747      5746      5744      5747
      5744      5747      5748      5744      5747      5749      5744      5747      5750
      5748      5747      5749      5748      5747      5750      5749      5747      5750
      5747      5750      5751      5747      5750      5752      5747      5750      5753
      5751      5750      5752      5751      5750      5753      5752      5750      5753
      5750      5753      5754      5750      5753      5755      5750      5753      5756
      5754      5753      5755      5754      5753      5756      5755      5753      5756
      5753      5756      5757      5753      5756      5758      5753      5756      5759
      5757      5756      5758      5757      5756      5759      5758      5756      5759
      5756      5759      5760      5756      5759      5761      5756      5759      5762
      5760      5759      5761      5760      5759      5762      5761      5759      5762
      5759      5762      5763      5759      5762      5764      5759      5762      5765
      5763      5762      5764      5763      5762      5765      5764      5762      5765
      5762      5765      5766      5762      5765      5767      5762      5765      5768
      5766      5765      5767      5766      5765      5768      5767      5765      5768
      5765      5768      5769      5765      5768      5770      5765      5768      5771
      5769      5768      5770      5769      5768      5771      5770      5768      5771
      5768      5771      5772      5768      5771      5773      5768      5771      5774
      5772      5771      5773      5772      5771      5774      5773      5771      5774
      5771      5774      5775      5771      5774      5776      5771      5774      5777
      5775      5774      5776      5775      5774      5777      5776      5774      5777
      5774      5777      5778      5774      5777      5779      5774      5777      5780
      5778      5777      5779      5778      5777      5780      5779      5777      5780
      5783      5780      5777      5783      5780      5781      5783      5780      5782
      5777      5780      5781      5777      5780      5782      5781      5780      5782
      5780      5783      5784      5780      5783      5785      5784      5783      5785
      5783      5785      5786      5785      5786      5787      5785      5786      5788
      5785      5786      5789      5787      5786      5788      5787      5786      5789
      5788      5786      5789      5786      5789      5790      5786      5789      5791
      5786      5789      5818      5790      5789      5791      5790      5789      5818
      5791      5789      5818      5789      5791      5792      5789      5791      5793
      5789      5791      5794      5792      5791      5793      5792      5791      5794
      5793      5791      5794      5791      5794      5795      5794      5795      5796
      5794      5795      5816      5794      5795      5817      5796      5795      5816
      5796      5795      5817      5816      5795      5817      5795      5796      5797
      5796      5797      5798      5796      5797      5799      5796      5797      5800
      5798      5797      5799      5798      5797      5800      5799      5797      5800
      5797      5800      5801      5797      5800      5802      5797      5800      5803
      5801      5800      5802      5801      5800      5803      5802      5800      5803
      5800      5803      5804      5800      5803      5808      5800      5803      5812
      5804      5803      5808      5804      5803      5812      5808      5803      5812
      5803      5804      5805      5803      5804      5806      5803      5804      5807
      5805      5804      5806      5805      5804      5807      5806      5804      5807
      5803      5808      5809      5803      5808      5810      5803      5808      5811
      5809      5808      5810      5809      5808      5811      5810      5808      5811
      5803      5812      5813      5803      5812      5814      5803      5812      5815
      5813      5812      5814      5813      5812      5815      5814      5812      5815
      5789      5818      5819      5821      5819      5818      5821      5819      5820
      5818      5819      5820      5819      5821      5822      5819      5821      5823
      5819      5821      5824      5822      5821      5823      5822      5821      5824
      5823      5821      5824      5821      5824      5825      5821      5824      5826
      5821      5824      5827      5825      5824      5826      5825      5824      5827
      5826      5824      5827      5824      5827      5828      5824      5827      5829
      5824      5827      5830      5828      5827      5829      5828      5827      5830
      5829      5827      5830      5827      5830      5831      5827      5830      5832
      5827      5830      5833      5831      5830      5832      5831      5830      5833
      5832      5830      5833      5830      5833      5834      5830      5833      5835
      5830      5833      5836      5834      5833      5835      5834      5833      5836
      5835      5833      5836      5833      5836      5837      5833      5836      5838
      5833      5836      5839      5837      5836      5838      5837      5836      5839
      5838      5836      5839      5836      5839      5840      5836      5839      5841
      5836      5839      5842      5840      5839      5841      5840      5839      5842
      5841      5839      5842      5839      5842      5843      5839      5842      5844
      5843      5842      5844      5842      5844      5845      5842      5844      5846
      5845      5844      5846      5844      5846      5847      5844      5846      5848
      5844      5846      5849      5847      5846      5848      5847      5846      5849
      5848      5846      5849      5846      5849      5850      5846      5849      5851
      5846      5849      5852      5850      5849      5851      5850      5849      5852
      5851      5849      5852      5849      5852      5853      5849      5852      5854
      5849      5852      5855      5853      5852      5854      5853      5852      5855
      5854      5852      5855      5852      5855      5856      5852      5855      5857
      5852      5855      5858      5856      5855      5857      5856      5855      5858
      5857      5855      5858      5855      5858      5859      5855      5858      5860
      5855      5858      5861      5859      5858      5860      5859      5858      5861
      5860      5858      5861      5858      5861      5862      5858      5861      5863
      5858      5861      5864      5862      5861      5863      5862      5861      5864
      5863      5861      5864      5861      5864      5865      5861      5864      5866
      5861      5864      5867      5865      5864      5866      5865      5864      5867
      5866      5864      5867      5864      5867      5868      5864      5867      5869
      5864      5867      5870      5868      5867      5869      5868      5867      5870
      5869      5867      5870      5872      5871      5873      5872      5871      5874
      5872      5871      5875      5873      5871      5874      5873      5871      5875
      5874      5871      5875      5871      5875      5876      5871      5875      5877
      5871      5875      5878      5876      5875      5877      5876      5875      5878
      5877      5875      5878      5875      5878      5879      5875      5878      5880
      5875      5878      5881      5879      5878      5880      5879      5878      5881
      5880      5878      5881      5878      5881      5882      5878      5881      5883
      5878      5881      5884      5882      5881      5883      5882      5881      5884
      5883      5881      5884      5881      5884      5885      5881      5884      5886
      5881      5884      5887      5885      5884      5886      5885      5884      5887
      5886      5884      5887      5884      5887      5888      5884      5887      5889
      5884      5887      5890      5888      5887      5889      5888      5887      5890
      5889      5887      5890      5887      5890      5891      5887      5890      5892
      5887      5890      5893      5891      5890      5892      5891      5890      5893
      5892      5890      5893      5890      5893      5894      5890      5893      5895
      5890      5893      5896      5894      5893      5895      5894      5893      5896
      5895      5893      5896      5893      5896      5897      5893      5896      5898
      5893      5896      5899      5897      5896      5898      5897      5896      5899
      5898      5896      5899      5896      5899      5900      5896      5899      5901
      5896      5899      5902      5900      5899      5901      5900      5899      5902
      5901      5899      5902      5899      5902      5903      5899      5902      5904
      5899      5902      5905      5903      5902      5904      5903      5902      5905
      5904      5902      5905      5902      5905      5906      5902      5905      5907
      5902      5905      5908      5906      5905      5907      5906      5905      5908
      5907      5905      5908      5905      5908      5909      5905      5908      5910
      5905      5908      5911      5909      5908      5910      5909      5908      5911
      5910      5908      5911      5908      5911      5912      5908      5911      5913
      5908      5911      5914      5912      5911      5913      5912      5911      5914
      5913      5911      5914      5917      5914      5911      5917      5914      5915
      5917      5914      5916      5911      5914      5915      5911      5914      5916
      5915      5914      5916      5914      5917      5918      5914      5917      5919
      5918      5917      5919      5917      5919      5920      5919      5920      5921
      5919      5920      5922      5919      5920      5923      5921      5920      5922
      5921      5920      5923      5922      5920      5923      5920      5923      5924
      5920      5923      5925      5920      5923      5952      5924      5923      5925
      5924      5923      5952      5925      5923      5952      5923      5925      5926
      5923      5925      5927      5923      5925      5928      5926      5925      5927
      5926      5925      5928      5927      5925      5928      5925      5928      5929
      5928      5929      5930      5928      5929      5950      5928      5929      5951
      5930      5929      5950      5930      5929      5951      5950      5929      5951
      5929      5930      5931      5930      5931      5932      5930      5931      5933
      5930      5931      5934      5932      5931      5933      5932      5931      5934
      5933      5931      5934      5931      5934      5935      5931      5934      5936
      5931      5934      5937      5935      5934      5936      5935      5934      5937
      5936      5934      5937      5934      5937      5938      5934      5937      5942
      5934      5937      5946      5938      5937      5942      5938      5937      5946
      5942      5937      5946      5937      5938      5939      5937      5938      5940
      5937      5938      5941      5939      5938      5940      5939      5938      5941
      5940      5938      5941      5937      5942      5943      5937      5942      5944
      5937      5942      5945      5943      5942      5944      5943      5942      5945
      5944      5942      5945      5937      5946      5947      5937      5946      5948
      5937      5946      5949      5947      5946      5948      5947      5946      5949
      5948      5946      5949      5923      5952      5953      5955      5953      5952
      5955      5953      5954      5952      5953      5954      5953      5955      5956
      5953      5955      5957      5953      5955      5958      5956      5955      5957
      5956      5955      5958      5957      5955      5958      5955      5958      5959
      5955      5958      5960      5955      5958      5961      5959      5958      5960
      5959      5958      5961      5960      5958      5961      5958      5961      5962
      5958      5961      5963      5958      5961      5964      5962      5961      5963
      5962      5961      5964      5963      5961      5964      5961      5964      5965
      5961      5964      5966      5961      5964      5967      5965      5964      5966
      5965      5964      5967      5966      5964      5967      5964      5967      5968
      5964      5967      5969      5964      5967      5970      5968      5967      5969
      5968      5967      5970      5969      5967      5970      5967      5970      5971
      5967      5970      5972      5967      5970      5973      5971      5970      5972
      5971      5970      5973      5972      5970      5973      5970      5973      5974
      5970      5973      5975      5970      5973      5976      5974      5973      5975
      5974      5973      5976      5975      5973      5976      5973      5976      5977
      5973      5976      5978      5977      5976      5978      5976      5978      5979
      5976      5978      5980      5979      5978      5980      5978      5980      5981
      5978      5980      5982      5978      5980      5983      5981      5980      5982
      5981      5980      5983      5982      5980      5983      5980      5983      5984
      5980      5983      5985      5980      5983      5986      5984      5983      5985
      5984      5983      5986      5985      5983      5986      5983      5986      5987
      5983      5986      5988      5983      5986      5989      5987      5986      5988
      5987      5986      5989      5988      5986      5989      5986      5989      5990
      5986      5989      5991      5986      5989      5992      5990      5989      5991
      5990      5989      5992      5991      5989      5992      5989      5992      5993
      5989      5992      5994      5989      5992      5995      5993      5992      5994
      5993      5992      5995      5994      5992      5995      5992      5995      5996
      5992      5995      5997      5992      5995      5998      5996      5995      5997
      5996      5995      5998      5997      5995      5998      5995      5998      5999
      5995      5998      6000      5995      5998      6001      5999      5998      6000
      5999      5998      6001      6000      5998      6001      5998      6001      6002
      5998      6001      6003      5998      6001      6004      6002      6001      6003
      6002      6001      6004      6003      6001      6004      6006      6005      6007
      6006      6005      6008      6006      6005      6009      6007      6005      6008
      6007      6005      6009      6008      6005      6009      6005      6009      6010
      6005      6009      6011      6005      6009      6012      6010      6009      6011
      6010      6009      6012      6011      6009      6012      6009      6012      6013
      6009      6012      6014      6009      6012      6015      6013      6012      6014
      6013      6012      6015      6014      6012      6015      6012      6015      6016
      6012      6015      6017      6012      6015      6018      6016      6015      6017
      6016      6015      6018      6017      6015      6018      6015      6018      6019
      6015      6018      6020      6015      6018      6021      6019      6018      6020
      6019      6018      6021      6020      6018      6021      6018      6021      6022
      6018      6021      6023      6018      6021      6024      6022      6021      6023
      6022      6021      6024      6023      6021      6024      6021      6024      6025
      6021      6024      6026      6021      6024      6027      6025      6024      6026
      6025      6024      6027      6026      6024      6027      6024      6027      6028
      6024      6027      6029      6024      6027      6030      6028      6027      6029
      6028      6027      6030      6029      6027      6030      6027      6030      6031
      6027      6030      6032      6027      6030      6033      6031      6030      6032
      6031      6030      6033      6032      6030      6033      6030      6033      6034
      6030      6033      6035      6030      6033      6036      6034      6033      6035
      6034      6033      6036      6035      6033      6036      6033      6036      6037
      6033      6036      6038      6033      6036      6039      6037      6036      6038
      6037      6036      6039      6038      6036      6039      6036      6039      6040
      6036      6039      6041      6036      6039      6042      6040      6039      6041
      6040      6039      6042      6041      6039      6042      6039      6042      6043
      6039      6042      6044      6039      6042      6045      6043      6042      6044
      6043      6042      6045      6044      6042      6045      6042      6045      6046
      6042      6045      6047      6042      6045      6048      6046      6045      6047
      6046      6045      6048      6047      6045      6048      6051      6048      6045
      6051      6048      6049      6051      6048      6050      6045      6048      6049
      6045      6048      6050      6049      6048      6050      6048      6051      6052
      6048      6051      6053      6052      6051      6053      6051      6053      6054
      6053      6054      6055      6053      6054      6056      6053      6054      6057
      6055      6054      6056      6055      6054      6057      6056      6054      6057
      6054      6057      6058      6054      6057      6059      6054      6057      6086
      6058      6057      6059      6058      6057      6086      6059      6057      6086
      6057      6059      6060      6057      6059      6061      6057      6059      6062
      6060      6059      6061      6060      6059      6062      6061      6059      6062
      6059      6062      6063      6062      6063      6064      6062      6063      6084
      6062      6063      6085      6064      6063      6084      6064      6063      6085
      6084      6063      6085      6063      6064      6065      6064      6065      6066
      6064      6065      6067      6064      6065      6068      6066      6065      6067
      6066      6065      6068      6067      6065      6068      6065      6068      6069
      6065      6068      6070      6065      6068      6071      6069      6068      6070
      6069      6068      6071      6070      6068      6071      6068      6071      6072
      6068      6071      6076      6068      6071      6080      6072      6071      6076
      6072      6071      6080      6076      6071      6080      6071      6072      6073
      6071      6072      6074      6071      6072      6075      6073      6072      6074
      6073      6072      6075      6074      6072      6075      6071      6076      6077
      6071      6076      6078      6071      6076      6079      6077      6076      6078
      6077      6076      6079      6078      6076      6079      6071      6080      6081
      6071      6080      6082      6071      6080      6083      6081      6080      6082
      6081      6080      6083      6082      6080      6083      6057      6086      6087
      6089      6087      6086      6089      6087      6088      6086      6087      6088
      6087      6089      6090      6087      6089      6091      6087      6089      6092
      6090      6089      6091      6090      6089      6092      6091      6089      6092
      6089      6092      6093      6089      6092      6094      6089      6092      6095
      6093      6092      6094      6093      6092      6095      6094      6092      6095
      6092      6095      6096      6092      6095      6097      6092      6095      6098
      6096      6095      6097      6096      6095      6098      6097      6095      6098
      6095      6098      6099      6095      6098      6100      6095      6098      6101
      6099      6098      6100      6099      6098      6101      6100      6098      6101
      6098      6101      6102      6098      6101      6103      6098      6101      6104
      6102      6101      6103      6102      6101      6104      6103      6101      6104
      6101      6104      6105      6101      6104      6106      6101      6104      6107
      6105      6104      6106      6105      6104      6107      6106      6104      6107
      6104      6107      6108      6104      6107      6109      6104      6107      6110
      6108      6107      6109      6108      6107      6110      6109      6107      6110
      6107      6110      6111      6107      6110      6112      6111      6110      6112
      6110      6112      6113      6110      6112      6114      6113      6112      6114
      6112      6114      6115      6112      6114      6116      6112      6114      6117
      6115      6114      6116      6115      6114      6117      6116      6114      6117
      6114      6117      6118      6114      6117      6119      6114      6117      6120
      6118      6117      6119      6118      6117      6120      6119      6117      6120
      6117      6120      6121      6117      6120      6122      6117      6120      6123
      6121      6120      6122      6121      6120      6123      6122      6120      6123
      6120      6123      6124      6120      6123      6125      6120      6123      6126
      6124      6123      6125      6124      6123      6126      6125      6123      6126
      6123      6126      6127      6123      6126      6128      6123      6126      6129
      6127      6126      6128      6127      6126      6129      6128      6126      6129
      6126      6129      6130      6126      6129      6131      6126      6129      6132
      6130      6129      6131      6130      6129      6132      6131      6129      6132
      6129      6132      6133      6129      6132      6134      6129      6132      6135
      6133      6132      6134      6133      6132      6135      6134      6132      6135
      6132      6135      6136      6132      6135      6137      6132      6135      6138
      6136      6135      6137      6136      6135      6138      6137      6135      6138
      6140      6139      6141      6140      6139      6142      6140      6139      6143
      6141      6139      6142      6141      6139      6143      6142      6139      6143
      6139      6143      6144      6139      6143      6145      6139      6143      6146
      6144      6143      6145      6144      6143      6146      6145      6143      6146
      6143      6146      6147      6143      6146      6148      6143      6146      6149
      6147      6146      6148      6147      6146      6149      6148      6146      6149
      6146      6149      6150      6146      6149      6151      6146      6149      6152
      6150      6149      6151      6150      6149      6152      6151      6149      6152
      6149      6152      6153      6149      6152      6154      6149      6152      6155
      6153      6152      6154      6153      6152      6155      6154      6152      6155
      6152      6155      6156      6152      6155      6157      6152      6155      6158
      6156      6155      6157      6156      6155      6158      6157      6155      6158
      6155      6158      6159      6155      6158      6160      6155      6158      6161
      6159      6158      6160      6159      6158      6161      6160      6158      6161
      6158      6161      6162      6158      6161      6163      6158      6161      6164
      6162      6161      6163      6162      6161      6164      6163      6161      6164
      6161      6164      6165      6161      6164      6166      6161      6164      6167
      6165      6164      6166      6165      6164      6167      6166      6164      6167
      6164      6167      6168      6164      6167      6169      6164      6167      6170
      6168      6167      6169      6168      6167      6170      6169      6167      6170
      6167      6170      6171      6167      6170      6172      6167      6170      6173
      6171      6170      6172      6171      6170      6173      6172      6170      6173
      6170      6173      6174      6170      6173      6175      6170      6173      6176
      6174      6173      6175      6174      6173      6176      6175      6173      6176
      6173      6176      6177      6173      6176      6178      6173      6176      6179
      6177      6176      6178      6177      6176      6179      6178      6176      6179
      6176      6179      6180      6176      6179      6181      6176      6179      6182
      6180      6179      6181      6180      6179      6182      6181      6179      6182
      6185      6182      6179      6185      6182      6183      6185      6182      6184
      6179      6182      6183      6179      6182      6184      6183      6182      6184
      6182      6185      6186      6182      6185      6187      6186      6185      6187
      6185      6187      6188      6187      6188      6189      6187      6188      6190
      6187      6188      6191      6189      6188      6190      6189      6188      6191
      6190      6188      6191      6188      6191      6192      6188      6191      6193
      6188      6191      6220      6192      6191      6193      6192      6191      6220
      6193      6191      6220      6191      6193      6194      6191      6193      6195
      6191      6193      6196      6194      6193      6195      6194      6193      6196
      6195      6193      6196      6193      6196      6197      6196      6197      6198
      6196      6197      6218      6196      6197      6219      6198      6197      6218
      6198      6197      6219      6218      6197      6219      6197      6198      6199
      6198      6199      6200      6198      6199      6201      6198      6199      6202
      6200      6199      6201      6200      6199      6202      6201      6199      6202
      6199      6202      6203      6199      6202      6204      6199      6202      6205
      6203      6202      6204      6203      6202      6205      6204      6202      6205
      6202      6205      6206      6202      6205      6210      6202      6205      6214
      6206      6205      6210      6206      6205      6214      6210      6205      6214
      6205      6206      6207      6205      6206      6208      6205      6206      6209
      6207      6206      6208      6207      6206      6209      6208      6206      6209
      6205      6210      6211      6205      6210      6212      6205      6210      6213
      6211      6210      6212      6211      6210      6213      6212      6210      6213
      6205      6214      6215      6205      6214      6216      6205      6214      6217
      6215      6214      6216      6215      6214      6217      6216      6214      6217
      6191      6220      6221      6223      6221      6220      6223      6221      6222
      6220      6221      6222      6221      6223      6224      6221      6223      6225
      6221      6223      6226      6224      6223      6225      6224      6223      6226
      6225      6223      6226      6223      6226      6227      6223      6226      6228
      6223      6226      6229      6227      6226      6228      6227      6226      6229
      6228      6226      6229      6226      6229      6230      6226      6229      6231
      6226      6229      6232      6230      6229      6231      6230      6229      6232
      6231      6229      6232      6229      6232      6233      6229      6232      6234
      6229      6232      6235      6233      6232      6234      6233      6232      6235
      6234      6232      6235      6232      6235      6236      6232      6235      6237
      6232      6235      6238      6236      6235      6237      6236      6235      6238
      6237      6235      6238      6235      6238      6239      6235      6238      6240
      6235      6238      6241      6239      6238      6240      6239      6238      6241
      6240      6238      6241      6238      6241      6242      6238      6241      6243
      6238      6241      6244      6242      6241      6243      6242      6241      6244
      6243      6241      6244      6241      6244      6245      6241      6244      6246
      6245      6244      6246      6244      6246      6247      6244      6246      6248
      6247      6246      6248      6246      6248      6249      6246      6248      6250
      6246      6248      6251      6249      6248      6250      6249      6248      6251
      6250      6248      6251      6248      6251      6252      6248      6251      6253
      6248      6251      6254      6252      6251      6253      6252      6251      6254
      6253      6251      6254      6251      6254      6255      6251      6254      6256
      6251      6254      6257      6255      6254      6256      6255      6254      6257
      6256      6254      6257      6254      6257      6258      6254      6257      6259
      6254      6257      6260      6258      6257      6259      6258      6257      6260
      6259      6257      6260      6257      6260      6261      6257      6260      6262
      6257      6260      6263      6261      6260      6262      6261      6260      6263
      6262      6260      6263      6260      6263      6264      6260      6263      6265
      6260      6263      6266      6264      6263      6265      6264      6263      6266
      6265      6263      6266      6263      6266      6267      6263      6266      6268
      6263      6266      6269      6267      6266      6268      6267      6266      6269
      6268      6266      6269      6266      6269      6270      6266      6269      6271
      6266      6269      6272      6270      6269      6271      6270      6269      6272
      6271      6269      6272      6274      6273      6275      6274      6273      6276
      6274      6273      6277      6275      6273      6276      6275      6273      6277
      6276      6273      6277      6273      6277      6278      6273      6277      6279
      6273      6277      6280      6278      6277      6279      6278      6277      6280
      6279      6277      6280      6277      6280      6281      6277      6280      6282
      6277      6280      6283      6281      6280      6282      6281      6280      6283
      6282      6280      6283      6280      6283      6284      6280      6283      6285
      6280      6283      6286      6284      6283      6285      6284      6283      6286
      6285      6283      6286      6283      6286      6287      6283      6286      6288
      6283      6286      6289      6287      6286      6288      6287      6286      6289
      6288      6286      6289      6286      6289      6290      6286      6289      6291
      6286      6289      6292      6290      6289      6291      6290      6289      6292
      6291      6289      6292      6289      6292      6293      6289      6292      6294
      6289      6292      6295      6293      6292      6294      6293      6292      6295
      6294      6292      6295      6292      6295      6296      6292      6295      6297
      6292      6295      6298      6296      6295      6297      6296      6295      6298
      6297      6295      6298      6295      6298      6299      6295      6298      6300
      6295      6298      6301      6299      6298      6300      6299      6298      6301
      6300      6298      6301      6298      6301      6302      6298      6301      6303
      6298      6301      6304      6302      6301      6303      6302      6301      6304
      6303      6301      6304      6301      6304      6305      6301      6304      6306
      6301      6304      6307      6305      6304      6306      6305      6304      6307
      6306      6304      6307      6304      6307      6308      6304      6307      6309
      6304      6307      6310      6308      6307      6309      6308      6307      6310
      6309      6307      6310      6307      6310      6311      6307      6310      6312
      6307      6310      6313      6311      6310      6312      6311      6310      6313
      6312      6310      6313      6310      6313      6314      6310      6313      6315
      6310      6313      6316      6314      6313      6315      6314      6313      6316
      6315      6313      6316      6319      6316      6313      6319      6316      6317
      6319      6316      6318      6313      6316      6317      6313      6316      6318
      6317      6316      6318      6316      6319      6320      6316      6319      6321
      6320      6319      6321      6319      6321      6322      6321      6322      6323
      6321      6322      6324      6321      6322      6325      6323      6322      6324
      6323      6322      6325      6324      6322      6325      6322      6325      6326
      6322      6325      6327      6322      6325      6354      6326      6325      6327
      6326      6325      6354      6327      6325      6354      6325      6327      6328
      6325      6327      6329      6325      6327      6330      6328      6327      6329
      6328      6327      6330      6329      6327      6330      6327      6330      6331
      6330      6331      6332      6330      6331      6352      6330      6331      6353
      6332      6331      6352      6332      6331      6353      6352      6331      6353
      6331      6332      6333      6332      6333      6334      6332      6333      6335
      6332      6333      6336      6334      6333      6335      6334      6333      6336
      6335      6333      6336      6333      6336      6337      6333      6336      6338
      6333      6336      6339      6337      6336      6338      6337      6336      6339
      6338      6336      6339      6336      6339      6340      6336      6339      6344
      6336      6339      6348      6340      6339      6344      6340      6339      6348
      6344      6339      6348      6339      6340      6341      6339      6340      6342
      6339      6340      6343      6341      6340      6342      6341      6340      6343
      6342      6340      6343      6339      6344      6345      6339      6344      6346
      6339      6344      6347      6345      6344      6346      6345      6344      6347
      6346      6344      6347      6339      6348      6349      6339      6348      6350
      6339      6348      6351      6349      6348      6350      6349      6348      6351
      6350      6348      6351      6325      6354      6355      6357      6355      6354
      6357      6355      6356      6354      6355      6356      6355      6357      6358
      6355      6357      6359      6355      6357      6360      6358      6357      6359
      6358      6357      6360      6359      6357      6360      6357      6360      6361
      6357      6360      6362      6357      6360      6363      6361      6360      6362
      6361      6360      6363      6362      6360      6363      6360      6363      6364
      6360      6363      6365      6360      6363      6366      6364      6363      6365
      6364      6363      6366      6365      6363      6366      6363      6366      6367
      6363      6366      6368      6363      6366      6369      6367      6366      6368
      6367      6366      6369      6368      6366      6369      6366      6369      6370
      6366      6369      6371      6366      6369      6372      6370      6369      6371
      6370      6369      6372      6371      6369      6372      6369      6372      6373
      6369      6372      6374      6369      6372      6375      6373      6372      6374
      6373      6372      6375      6374      6372      6375      6372      6375      6376
      6372      6375      6377      6372      6375      6378      6376      6375      6377
      6376      6375      6378      6377      6375      6378      6375      6378      6379
      6375      6378      6380      6379      6378      6380      6378      6380      6381
      6378      6380      6382      6381      6380      6382      6380      6382      6383
      6380      6382      6384      6380      6382      6385      6383      6382      6384
      6383      6382      6385      6384      6382      6385      6382      6385      6386
      6382      6385      6387      6382      6385      6388      6386      6385      6387
      6386      6385      6388      6387      6385      6388      6385      6388      6389
      6385      6388      6390      6385      6388      6391      6389      6388      6390
      6389      6388      6391      6390      6388      6391      6388      6391      6392
      6388      6391      6393      6388      6391      6394      6392      6391      6393
      6392      6391      6394      6393      6391      6394      6391      6394      6395
      6391      6394      6396      6391      6394      6397      6395      6394      6396
      6395      6394      6397      6396      6394      6397      6394      6397      6398
      6394      6397      6399      6394      6397      6400      6398      6397      6399
      6398      6397      6400      6399      6397      6400      6397      6400      6401
      6397      6400      6402      6397      6400      6403      6401      6400      6402
      6401      6400      6403      6402      6400      6403      6400      6403      6404
      6400      6403      6405      6400      6403      6406      6404      6403      6405
      6404      6403      6406      6405      6403      6406      6408      6407      6409
      6408      6407      6410      6408      6407      6411      6409      6407      6410
      6409      6407      6411      6410      6407      6411      6407      6411      6412
      6407      6411      6413      6407      6411      6414      6412      6411      6413
      6412      6411      6414      6413      6411      6414      6411      6414      6415
      6411      6414      6416      6411      6414      6417      6415      6414      6416
      6415      6414      6417      6416      6414      6417      6414      6417      6418
      6414      6417      6419      6414      6417      6420      6418      6417      6419
      6418      6417      6420      6419      6417      6420      6417      6420      6421
      6417      6420      6422      6417      6420      6423      6421      6420      6422
      6421      6420      6423      6422      6420      6423      6420      6423      6424
      6420      6423      6425      6420      6423      6426      6424      6423      6425
      6424      6423      6426      6425      6423      6426      6423      6426      6427
      6423      6426      6428      6423      6426      6429      6427      6426      6428
      6427      6426      6429      6428      6426      6429      6426      6429      6430
      6426      6429      6431      6426      6429      6432      6430      6429      6431
      6430      6429      6432      6431      6429      6432      6429      6432      6433
      6429      6432      6434      6429      6432      6435      6433      6432      6434
      6433      6432      6435      6434      6432      6435      6432      6435      6436
      6432      6435      6437      6432      6435      6438      6436      6435      6437
      6436      6435      6438      6437      6435      6438      6435      6438      6439
      6435      6438      6440      6435      6438      6441      6439      6438      6440
      6439      6438      6441      6440      6438      6441      6438      6441      6442
      6438      6441      6443      6438      6441      6444      6442      6441      6443
      6442      6441      6444      6443      6441      6444      6441      6444      6445
      6441      6444      6446      6441      6444      6447      6445      6444      6446
      6445      6444      6447      6446      6444      6447      6444      6447      6448
      6444      6447      6449      6444      6447      6450      6448      6447      6449
      6448      6447      6450      6449      6447      6450      6453      6450      6447
      6453      6450      6451      6453      6450      6452      6447      6450      6451
      6447      6450      6452      6451      6450      6452      6450      6453      6454
      6450      6453      6455      6454      6453      6455      6453      6455      6456
      6455      6456      6457      6455      6456      6458      6455      6456      6459
      6457      6456      6458      6457      6456      6459      6458      6456      6459
      6456      6459      6460      6456      6459      6461      6456      6459      6488
      6460      6459      6461      6460      6459      6488      6461      6459      6488
      6459      6461      6462      6459      6461      6463      6459      6461      6464
      6462      6461      6463      6462      6461      6464      6463      6461      6464
      6461      6464      6465      6464      6465      6466      6464      6465      6486
      6464      6465      6487      6466      6465      6486      6466      6465      6487
      6486      6465      6487      6465      6466      6467      6466      6467      6468
      6466      6467      6469      6466      6467      6470      6468      6467      6469
      6468      6467      6470      6469      6467      6470      6467      6470      6471
      6467      6470      6472      6467      6470      6473      6471      6470      6472
      6471      6470      6473      6472      6470      6473      6470      6473      6474
      6470      6473      6478      6470      6473      6482      6474      6473      6478
      6474      6473      6482      6478      6473      6482      6473      6474      6475
      6473      6474      6476      6473      6474      6477      6475      6474      6476
      6475      6474      6477      6476      6474      6477      6473      6478      6479
      6473      6478      6480      6473      6478      6481      6479      6478      6480
      6479      6478      6481      6480      6478      6481      6473      6482      6483
      6473      6482      6484      6473      6482      6485      6483      6482      6484
      6483      6482      6485      6484      6482      6485      6459      6488      6489
      6491      6489      6488      6491      6489      6490      6488      6489      6490
      6489      6491      6492      6489      6491      6493      6489      6491      6494
      6492      6491      6493      6492      6491      6494      6493      6491      6494
      6491      6494      6495      6491      6494      6496      6491      6494      6497
      6495      6494      6496      6495      6494      6497      6496      6494      6497
      6494      6497      6498      6494      6497      6499      6494      6497      6500
      6498      6497      6499      6498      6497      6500      6499      6497      6500
      6497      6500      6501      6497      6500      6502      6497      6500      6503
      6501      6500      6502      6501      6500      6503      6502      6500      6503
      6500      6503      6504      6500      6503      6505      6500      6503      6506
      6504      6503      6505      6504      6503      6506      6505      6503      6506
      6503      6506      6507      6503      6506      6508      6503      6506      6509
      6507      6506      6508      6507      6506      6509      6508      6506      6509
      6506      6509      6510      6506      6509      6511      6506      6509      6512
      6510      6509      6511      6510      6509      6512      6511      6509      6512
      6509      6512      6513      6509      6512      6514      6513      6512      6514
      6512      6514      6515      6512      6514      6516      6515      6514      6516
      6514      6516      6517      6514      6516      6518      6514      6516      6519
      6517      6516      6518      6517      6516      6519      6518      6516      6519
      6516      6519      6520      6516      6519      6521      6516      6519      6522
      6520      6519      6521      6520      6519      6522      6521      6519      6522
      6519      6522      6523      6519      6522      6524      6519      6522      6525
      6523      6522      6524      6523      6522      6525      6524      6522      6525
      6522      6525      6526      6522      6525      6527      6522      6525      6528
      6526      6525      6527      6526      6525      6528      6527      6525      6528
      6525      6528      6529      6525      6528      6530      6525      6528      6531
      6529      6528      6530      6529      6528      6531      6530      6528      6531
      6528      6531      6532      6528      6531      6533      6528      6531      6534
      6532      6531      6533      6532      6531      6534      6533      6531      6534
      6531      6534      6535      6531      6534      6536      6531      6534      6537
      6535      6534      6536      6535      6534      6537      6536      6534      6537
      6534      6537      6538      6534      6537      6539      6534      6537      6540
      6538      6537      6539      6538      6537      6540      6539      6537      6540
      6542      6541      6543      6542      6541      6544      6542      6541      6545
      6543      6541      6544      6543      6541      6545      6544      6541      6545
      6541      6545      6546      6541      6545      6547      6541      6545      6548
      6546      6545      6547      6546      6545      6548      6547      6545      6548
      6545      6548      6549      6545      6548      6550      6545      6548      6551
      6549      6548      6550      6549      6548      6551      6550      6548      6551
      6548      6551      6552      6548      6551      6553      6548      6551      6554
      6552      6551      6553      6552      6551      6554      6553      6551      6554
      6551      6554      6555      6551      6554      6556      6551      6554      6557
      6555      6554      6556      6555      6554      6557      6556      6554      6557
      6554      6557      6558      6554      6557      6559      6554      6557      6560
      6558      6557      6559      6558      6557      6560      6559      6557      6560
      6557      6560      6561      6557      6560      6562      6557      6560      6563
      6561      6560      6562      6561      6560      6563      6562      6560      6563
      6560      6563      6564      6560      6563      6565      6560      6563      6566
      6564      6563      6565      6564      6563      6566      6565      6563      6566
      6563      6566      6567      6563      6566      6568      6563      6566      6569
      6567      6566      6568      6567      6566      6569      6568      6566      6569
      6566      6569      6570      6566      6569      6571      6566      6569      6572
      6570      6569      6571      6570      6569      6572      6571      6569      6572
      6569      6572      6573      6569      6572      6574      6569      6572      6575
      6573      6572      6574      6573      6572      6575      6574      6572      6575
      6572      6575      6576      6572      6575      6577      6572      6575      6578
      6576      6575      6577      6576      6575      6578      6577      6575      6578
      6575      6578      6579      6575      6578      6580      6575      6578      6581
      6579      6578      6580      6579      6578      6581      6580      6578      6581
      6578      6581      6582      6578      6581      6583      6578      6581      6584
      6582      6581      6583      6582      6581      6584      6583      6581      6584
      6587      6584      6581      6587      6584      6585      6587      6584      6586
      6581      6584      6585      6581      6584      6586      6585      6584      6586
      6584      6587      6588      6584      6587      6589      6588      6587      6589
      6587      6589      6590      6589      6590      6591      6589      6590      6592
      6589      6590      6593      6591      6590      6592      6591      6590      6593
      6592      6590      6593      6590      6593      6594      6590      6593      6595
      6590      6593      6622      6594      6593      6595      6594      6593      6622
      6595      6593      6622      6593      6595      6596      6593      6595      6597
      6593      6595      6598      6596      6595      6597      6596      6595      6598
      6597      6595      6598      6595      6598      6599      6598      6599      6600
      6598      6599      6620      6598      6599      6621      6600      6599      6620
      6600      6599      6621      6620      6599      6621      6599      6600      6601
      6600      6601      6602      6600      6601      6603      6600      6601      6604
      6602      6601      6603      6602      6601      6604      6603      6601      6604
      6601      6604      6605      6601      6604      6606      6601      6604      6607
      6605      6604      6606      6605      6604      6607      6606      6604      6607
      6604      6607      6608      6604      6607      6612      6604      6607      6616
      6608      6607      6612      6608      6607      6616      6612      6607      6616
      6607      6608      6609      6607      6608      6610      6607      6608      6611
      6609      6608      6610      6609      6608      6611      6610      6608      6611
      6607      6612      6613      6607      6612      6614      6607      6612      6615
      6613      6612      6614      6613      6612      6615      6614      6612      6615
      6607      6616      6617      6607      6616      6618      6607      6616      6619
      6617      6616      6618      6617      6616      6619      6618      6616      6619
      6593      6622      6623      6625      6623      6622      6625      6623      6624
      6622      6623      6624      6623      6625      6626      6623      6625      6627
      6623      6625      6628      6626      6625      6627      6626      6625      6628
      6627      6625      6628      6625      6628      6629      6625      6628      6630
      6625      6628      6631      6629      6628      6630      6629      6628      6631
      6630      6628      6631      6628      6631      6632      6628      6631      6633
      6628      6631      6634      6632      6631      6633      6632      6631      6634
      6633      6631      6634      6631      6634      6635      6631      6634      6636
      6631      6634      6637      6635      6634      6636      6635      6634      6637
      6636      6634      6637      6634      6637      6638      6634      6637      6639
      6634      6637      6640      6638      6637      6639      6638      6637      6640
      6639      6637      6640      6637      6640      6641      6637      6640      6642
      6637      6640      6643      6641      6640      6642      6641      6640      6643
      6642      6640      6643      6640      6643      6644      6640      6643      6645
      6640      6643      6646      6644      6643      6645      6644      6643      6646
      6645      6643      6646      6643      6646      6647      6643      6646      6648
      6647      6646      6648      6646      6648      6649      6646      6648      6650
      6649      6648      6650      6648      6650      6651      6648      6650      6652
      6648      6650      6653      6651      6650      6652      6651      6650      6653
      6652      6650      6653      6650      6653      6654      6650      6653      6655
      6650      6653      6656      6654      6653      6655      6654      6653      6656
      6655      6653      6656      6653      6656      6657      6653      6656      6658
      6653      6656      6659      6657      6656      6658      6657      6656      6659
      6658      6656      6659      6656      6659      6660      6656      6659      6661
      6656      6659      6662      6660      6659      6661      6660      6659      6662
      6661      6659      6662      6659      6662      6663      6659      6662      6664
      6659      6662      6665      6663      6662      6664      6663      6662      6665
      6664      6662      6665      6662      6665      6666      6662      6665      6667
      6662      6665      6668      6666      6665      6667      6666      6665      6668
      6667      6665      6668      6665      6668      6669      6665      6668      6670
      6665      6668      6671      6669      6668      6670      6669      6668      6671
      6670      6668      6671      6668      6671      6672      6668      6671      6673
      6668      6671      6674      6672      6671      6673      6672      6671      6674
      6673      6671      6674      6676      6675      6677      6676      6675      6678
      6676      6675      6679      6677      6675      6678      6677      6675      6679
      6678      6675      6679      6675      6679      6680      6675      6679      6681
      6675      6679      6682      6680      6679      6681      6680      6679      6682
      6681      6679      6682      6679      6682      6683      6679      6682      6684
      6679      6682      6685      6683      6682      6684      6683      6682      6685
      6684      6682      6685      6682      6685      6686      6682      6685      6687
      6682      6685      6688      6686      6685      6687      6686      6685      6688
      6687      6685      6688      6685      6688      6689      6685      6688      6690
      6685      6688      6691      6689      6688      6690      6689      6688      6691
      6690      6688      6691      6688      6691      6692      6688      6691      6693
      6688      6691      6694      6692      6691      6693      6692      6691      6694
      6693      6691      6694      6691      6694      6695      6691      6694      6696
      6691      6694      6697      6695      6694      6696      6695      6694      6697
      6696      6694      6697      6694      6697      6698      6694      6697      6699
      6694      6697      6700      6698      6697      6699      6698      6697      6700
      6699      6697      6700      6697      6700      6701      6697      6700      6702
      6697      6700      6703      6701      6700      6702      6701      6700      6703
      6702      6700      6703      6700      6703      6704      6700      6703      6705
      6700      6703      6706      6704      6703      6705      6704      6703      6706
      6705      6703      6706      6703      6706      6707      6703      6706      6708
      6703      6706      6709      6707      6706      6708      6707      6706      6709
      6708      6706      6709      6706      6709      6710      6706      6709      6711
      6706      6709      6712      6710      6709      6711      6710      6709      6712
      6711      6709      6712      6709      6712      6713      6709      6712      6714
      6709      6712      6715      6713      6712      6714      6713      6712      6715
      6714      6712      6715      6712      6715      6716      6712      6715      6717
      6712      6715      6718      6716      6715      6717      6716      6715      6718
      6717      6715      6718      6721      6718      6715      6721      6718      6719
      6721      6718      6720      6715      6718      6719      6715      6718      6720
      6719      6718      6720      6718      6721      6722      6718      6721      6723
      6722      6721      6723      6721      6723      6724      6723      6724      6725
      6723      6724      6726      6723      6724      6727      6725      6724      6726
      6725      6724      6727      6726      6724      6727      6724      6727      6728
      6724      6727      6729      6724      6727      6756      6728      6727      6729
      6728      6727      6756      6729      6727      6756      6727      6729      6730
      6727      6729      6731      6727      6729      6732      6730      6729      6731
      6730      6729      6732      6731      6729      6732      6729      6732      6733
      6732      6733      6734      6732      6733      6754      6732      6733      6755
      6734      6733      6754      6734      6733      6755      6754      6733      6755
      6733      6734      6735      6734      6735      6736      6734      6735      6737
      6734      6735      6738      6736      6735      6737      6736      6735      6738
      6737      6735      6738      6735      6738      6739      6735      6738      6740
      6735      6738      6741      6739      6738      6740      6739      6738      6741
      6740      6738      6741      6738      6741      6742      6738      6741      6746
      6738      6741      6750      6742      6741      6746      6742      6741      6750
      6746      6741      6750      6741      6742      6743      6741      6742      6744
      6741      6742      6745      6743      6742      6744      6743      6742      6745
      6744      6742      6745      6741      6746      6747      6741      6746      6748
      6741      6746      6749      6747      6746      6748      6747      6746      6749
      6748      6746      6749      6741      6750      6751      6741      6750      6752
      6741      6750      6753      6751      6750      6752      6751      6750      6753
      6752      6750      6753      6727      6756      6757      6759      6757      6756
      6759      6757      6758      6756      6757      6758      6757      6759      6760
      6757      6759      6761      6757      6759      6762      6760      6759      6761
      6760      6759      6762      6761      6759      6762      6759      6762      6763
      6759      6762      6764      6759      6762      6765      6763      6762      6764
      6763      6762      6765      6764      6762      6765      6762      6765      6766
      6762      6765      6767      6762      6765      6768      6766      6765      6767
      6766      6765      6768      6767      6765      6768      6765      6768      6769
      6765      6768      6770      6765      6768      6771      6769      6768      6770
      6769      6768      6771      6770      6768      6771      6768      6771      6772
      6768      6771      6773      6768      6771      6774      6772      6771      6773
      6772      6771      6774      6773      6771      6774      6771      6774      6775
      6771      6774      6776      6771      6774      6777      6775      6774      6776
      6775      6774      6777      6776      6774      6777      6774      6777      6778
      6774      6777      6779      6774      6777      6780      6778      6777      6779
      6778      6777      6780      6779      6777      6780      6777      6780      6781
      6777      6780      6782      6781      6780      6782      6780      6782      6783
      6780      6782      6784      6783      6782      6784      6782      6784      6785
      6782      6784      6786      6782      6784      6787      6785      6784      6786
      6785      6784      6787      6786      6784      6787      6784      6787      6788
      6784      6787      6789      6784      6787      6790      6788      6787      6789
      6788      6787      6790      6789      6787      6790      6787      6790      6791
      6787      6790      6792      6787      6790      6793      6791      6790      6792
      6791      6790      6793      6792      6790      6793      6790      6793      6794
      6790      6793      6795      6790      6793      6796      6794      6793      6795
      6794      6793      6796      6795      6793      6796      6793      6796      6797
      6793      6796      6798      6793      6796      6799      6797      6796      6798
      6797      6796      6799      6798      6796      6799      6796      6799      6800
      6796      6799      6801      6796      6799      6802      6800      6799      6801
      6800      6799      6802      6801      6799      6802      6799      6802      6803
      6799      6802      6804      6799      6802      6805      6803      6802      6804
      6803      6802      6805      6804      6802      6805      6802      6805      6806
      6802      6805      6807      6802      6805      6808      6806      6805      6807
      6806      6805      6808      6807      6805      6808      6810      6809      6811
      6810      6809      6812      6810      6809      6813      6811      6809      6812
      6811      6809      6813      6812      6809      6813      6809      6813      6814
      6809      6813      6815      6809      6813      6816      6814      6813      6815
      6814      6813      6816      6815      6813      6816      6813      6816      6817
      6813      6816      6818      6813      6816      6819      6817      6816      6818
      6817      6816      6819      6818      6816      6819      6816      6819      6820
      6816      6819      6821      6816      6819      6822      6820      6819      6821
      6820      6819      6822      6821      6819      6822      6819      6822      6823
      6819      6822      6824      6819      6822      6825      6823      6822      6824
      6823      6822      6825      6824      6822      6825      6822      6825      6826
      6822      6825      6827      6822      6825      6828      6826      6825      6827
      6826      6825      6828      6827      6825      6828      6825      6828      6829
      6825      6828      6830      6825      6828      6831      6829      6828      6830
      6829      6828      6831      6830      6828      6831      6828      6831      6832
      6828      6831      6833      6828      6831      6834      6832      6831      6833
      6832      6831      6834      6833      6831      6834      6831      6834      6835
      6831      6834      6836      6831      6834      6837      6835      6834      6836
      6835      6834      6837      6836      6834      6837      6834      6837      6838
      6834      6837      6839      6834      6837      6840      6838      6837      6839
      6838      6837      6840      6839      6837      6840      6837      6840      6841
      6837      6840      6842      6837      6840      6843      6841      6840      6842
      6841      6840      6843      6842      6840      6843      6840      6843      6844
      6840      6843      6845      6840      6843      6846      6844      6843      6845
      6844      6843      6846      6845      6843      6846      6843      6846      6847
      6843      6846      6848      6843      6846      6849      6847      6846      6848
      6847      6846      6849      6848      6846      6849      6846      6849      6850
      6846      6849      6851      6846      6849      6852      6850      6849      6851
      6850      6849      6852      6851      6849      6852      6855      6852      6849
      6855      6852      6853      6855      6852      6854      6849      6852      6853
      6849      6852      6854      6853      6852      6854      6852      6855      6856
      6852      6855      6857      6856      6855      6857      6855      6857      6858
      6857      6858      6859      6857      6858      6860      6857      6858      6861
      6859      6858      6860      6859      6858      6861      6860      6858      6861
      6858      6861      6862      6858      6861      6863      6858      6861      6890
      6862      6861      6863      6862      6861      6890      6863      6861      6890
      6861      6863      6864      6861      6863      6865      6861      6863      6866
      6864      6863      6865      6864      6863      6866      6865      6863      6866
      6863      6866      6867      6866      6867      6868      6866      6867      6888
      6866      6867      6889      6868      6867      6888      6868      6867      6889
      6888      6867      6889      6867      6868      6869      6868      6869      6870
      6868      6869      6871      6868      6869      6872      6870      6869      6871
      6870      6869      6872      6871      6869      6872      6869      6872      6873
      6869      6872      6874      6869      6872      6875      6873      6872      6874
      6873      6872      6875      6874      6872      6875      6872      6875      6876
      6872      6875      6880      6872      6875      6884      6876      6875      6880
      6876      6875      6884      6880      6875      6884      6875      6876      6877
      6875      6876      6878      6875      6876      6879      6877      6876      6878
      6877      6876      6879      6878      6876      6879      6875      6880      6881
      6875      6880      6882      6875      6880      6883      6881      6880      6882
      6881      6880      6883      6882      6880      6883      6875      6884      6885
      6875      6884      6886      6875      6884      6887      6885      6884      6886
      6885      6884      6887      6886      6884      6887      6861      6890      6891
      6893      6891      6890      6893      6891      6892      6890      6891      6892
      6891      6893      6894      6891      6893      6895      6891      6893      6896
      6894      6893      6895      6894      6893      6896      6895      6893      6896
      6893      6896      6897      6893      6896      6898      6893      6896      6899
      6897      6896      6898      6897      6896      6899      6898      6896      6899
      6896      6899      6900      6896      6899      6901      6896      6899      6902
      6900      6899      6901      6900      6899      6902      6901      6899      6902
      6899      6902      6903      6899      6902      6904      6899      6902      6905
      6903      6902      6904      6903      6902      6905      6904      6902      6905
      6902      6905      6906      6902      6905      6907      6902      6905      6908
      6906      6905      6907      6906      6905      6908      6907      6905      6908
      6905      6908      6909      6905      6908      6910      6905      6908      6911
      6909      6908      6910      6909      6908      6911      6910      6908      6911
      6908      6911      6912      6908      6911      6913      6908      6911      6914
      6912      6911      6913      6912      6911      6914      6913      6911      6914
      6911      6914      6915      6911      6914      6916      6915      6914      6916
      6914      6916      6917      6914      6916      6918      6917      6916      6918
      6916      6918      6919      6916      6918      6920      6916      6918      6921
      6919      6918      6920      6919      6918      6921      6920      6918      6921
      6918      6921      6922      6918      6921      6923      6918      6921      6924
      6922      6921      6923      6922      6921      6924      6923      6921      6924
      6921      6924      6925      6921      6924      6926      6921      6924      6927
      6925      6924      6926      6925      6924      6927      6926      6924      6927
      6924      6927      6928      6924      6927      6929      6924      6927      6930
      6928      6927      6929      6928      6927      6930      6929      6927      6930
      6927      6930      6931      6927      6930      6932      6927      6930      6933
      6931      6930      6932      6931      6930      6933      6932      6930      6933
      6930      6933      6934      6930      6933      6935      6930      6933      6936
      6934      6933      6935      6934      6933      6936      6935      6933      6936
      6933      6936      6937      6933      6936      6938      6933      6936      6939
      6937      6936      6938      6937      6936      6939      6938      6936      6939
      6936      6939      6940      6936      6939      6941      6936      6939      6942
      6940      6939      6941      6940      6939      6942      6941      6939      6942
      6944      6943      6945      6944      6943      6946      6944      6943      6947
      6945      6943      6946      6945      6943      6947      6946      6943      6947
      6943      6947      6948      6943      6947      6949      6943      6947      6950
      6948      6947      6949      6948      6947      6950      6949      6947      6950
      6947      6950      6951      6947      6950      6952      6947      6950      6953
      6951      6950      6952      6951      6950      6953      6952      6950      6953
      6950      6953      6954      6950      6953      6955      6950      6953      6956
      6954      6953      6955      6954      6953      6956      6955      6953      6956
      6953      6956      6957      6953      6956      6958      6953      6956      6959
      6957      6956      6958      6957      6956      6959      6958      6956      6959
      6956      6959      6960      6956      6959      6961      6956      6959      6962
      6960      6959      6961      6960      6959      6962      6961      6959      6962
      6959      6962      6963      6959      6962      6964      6959      6962      6965
      6963      6962      6964      6963      6962      6965      6964      6962      6965
      6962      6965      6966      6962      6965      6967      6962      6965      6968
      6966      6965      6967      6966      6965      6968      6967      6965      6968
      6965      6968      6969      6965      6968      6970      6965      6968      6971
      6969      6968      6970      6969      6968      6971      6970      6968      6971
      6968      6971      6972      6968      6971      6973      6968      6971      6974
      6972      6971      6973      6972      6971      6974      6973      6971      6974
      6971      6974      6975      6971      6974      6976      6971      6974      6977
      6975      6974      6976      6975      6974      6977      6976      6974      6977
      6974      6977      6978      6974      6977      6979      6974      6977      6980
      6978      6977      6979      6978      6977      6980      6979      6977      6980
      6977      6980      6981      6977      6980      6982      6977      6980      6983
      6981      6980      6982      6981      6980      6983      6982      6980      6983
      6980      6983      6984      6980      6983      6985      6980      6983      6986
      6984      6983      6985      6984      6983      6986      6985      6983      6986
      6989      6986      6983      6989      6986      6987      6989      6986      6988
      6983      6986      6987      6983      6986      6988      6987      6986      6988
      6986      6989      6990      6986      6989      6991      6990      6989      6991
      6989      6991      6992      6991      6992      6993      6991      6992      6994
      6991      6992      6995      6993      6992      6994      6993      6992      6995
      6994      6992      6995      6992      6995      6996      6992      6995      6997
      6992      6995      7024      6996      6995      6997      6996      6995      7024
      6997      6995      7024      6995      6997      6998      6995      6997      6999
      6995      6997      7000      6998      6997      6999      6998      6997      7000
      6999      6997      7000      6997      7000      7001      7000      7001      7002
      7000      7001      7022      7000      7001      7023      7002      7001      7022
      7002      7001      7023      7022      7001      7023      7001      7002      7003
      7002      7003      7004      7002      7003      7005      7002      7003      7006
      7004      7003      7005      7004      7003      7006      7005      7003      7006
      7003      7006      7007      7003      7006      7008      7003      7006      7009
      7007      7006      7008      7007      7006      7009      7008      7006      7009
      7006      7009      7010      7006      7009      7014      7006      7009      7018
      7010      7009      7014      7010      7009      7018      7014      7009      7018
      7009      7010      7011      7009      7010      7012      7009      7010      7013
      7011      7010      7012      7011      7010      7013      7012      7010      7013
      7009      7014      7015      7009      7014      7016      7009      7014      7017
      7015      7014      7016      7015      7014      7017      7016      7014      7017
      7009      7018      7019      7009      7018      7020      7009      7018      7021
      7019      7018      7020      7019      7018      7021      7020      7018      7021
      6995      7024      7025      7027      7025      7024      7027      7025      7026
      7024      7025      7026      7025      7027      7028      7025      7027      7029
      7025      7027      7030      7028      7027      7029      7028      7027      7030
      7029      7027      7030      7027      7030      7031      7027      7030      7032
      7027      7030      7033      7031      7030      7032      7031      7030      7033
      7032      7030      7033      7030      7033      7034      7030      7033      7035
      7030      7033      7036      7034      7033      7035      7034      7033      7036
      7035      7033      7036      7033      7036      7037      7033      7036      7038
      7033      7036      7039      7037      7036      7038      7037      7036      7039
      7038      7036      7039      7036      7039      7040      7036      7039      7041
      7036      7039      7042      7040      7039      7041      7040      7039      7042
      7041      7039      7042      7039      7042      7043      7039      7042      7044
      7039      7042      7045      7043      7042      7044      7043      7042      7045
      7044      7042      7045      7042      7045      7046      7042      7045      7047
      7042      7045      7048      7046      7045      7047      7046      7045      7048
      7047      7045      7048      7045      7048      7049      7045      7048      7050
      7049      7048      7050      7048      7050      7051      7048      7050      7052
      7051      7050      7052      7050      7052      7053      7050      7052      7054
      7050      7052      7055      7053      7052      7054      7053      7052      7055
      7054      7052      7055      7052      7055      7056      7052      7055      7057
      7052      7055      7058      7056      7055      7057      7056      7055      7058
      7057      7055      7058      7055      7058      7059      7055      7058      7060
      7055      7058      7061      7059      7058      7060      7059      7058      7061
      7060      7058      7061      7058      7061      7062      7058      7061      7063
      7058      7061      7064      7062      7061      7063      7062      7061      7064
      7063      7061      7064      7061      7064      7065      7061      7064      7066
      7061      7064      7067      7065      7064      7066      7065      7064      7067
      7066      7064      7067      7064      7067      7068      7064      7067      7069
      7064      7067      7070      7068      7067      7069      7068      7067      7070
      7069      7067      7070      7067      7070      7071      7067      7070      7072
      7067      7070      7073      7071      7070      7072      7071      7070      7073
      7072      7070      7073      7070      7073      7074      7070      7073      7075
      7070      7073      7076      7074      7073      7075      7074      7073      7076
      7075      7073      7076      7078      7077      7079      7078      7077      7080
      7078      7077      7081      7079      7077      7080      7079      7077      7081
      7080      7077      7081      7077      7081      7082      7077      7081      7083
      7077      7081      7084      7082      7081      7083      7082      7081      7084
      7083      7081      7084      7081      7084      7085      7081      7084      7086
      7081      7084      7087      7085      7084      7086      7085      7084      7087
      7086      7084      7087      7084      7087      7088      7084      7087      7089
      7084      7087      7090      7088      7087      7089      7088      7087      7090
      7089      7087      7090      7087      7090      7091      7087      7090      7092
      7087      7090      7093      7091      7090      7092      7091      7090      7093
      7092      7090      7093      7090      7093      7094      7090      7093      7095
      7090      7093      7096      7094      7093      7095      7094      7093      7096
      7095      7093      7096      7093      7096      7097      7093      7096      7098
      7093      7096      7099      7097      7096      7098      7097      7096      7099
      7098      7096      7099      7096      7099      7100      7096      7099      7101
      7096      7099      7102      7100      7099      7101      7100      7099      7102
      7101      7099      7102      7099      7102      7103      7099      7102      7104
      7099      7102      7105      7103      7102      7104      7103      7102      7105
      7104      7102      7105      7102      7105      7106      7102      7105      7107
      7102      7105      7108      7106      7105      7107      7106      7105      7108
      7107      7105      7108      7105      7108      7109      7105      7108      7110
      7105      7108      7111      7109      7108      7110      7109      7108      7111
      7110      7108      7111      7108      7111      7112      7108      7111      7113
      7108      7111      7114      7112      7111      7113      7112      7111      7114
      7113      7111      7114      7111      7114      7115      7111      7114      7116
      7111      7114      7117      7115      7114      7116      7115      7114      7117
      7116      7114      7117      7114      7117      7118      7114      7117      7119
      7114      7117      7120      7118      7117      7119      7118      7117      7120
      7119      7117      7120      7123      7120      7117      7123      7120      7121
      7123      7120      7122      7117      7120      7121      7117      7120      7122
      7121      7120      7122      7120      7123      7124      7120      7123      7125
      7124      7123      7125      7123      7125      7126      7125      7126      7127
      7125      7126      7128      7125      7126      7129      7127      7126      7128
      7127      7126      7129      7128      7126      7129      7126      7129      7130
      7126      7129      7131      7126      7129      7158      7130      7129      7131
      7130      7129      7158      7131      7129      7158      7129      7131      7132
      7129      7131      7133      7129      7131      7134      7132      7131      7133
      7132      7131      7134      7133      7131      7134      7131      7134      7135
      7134      7135      7136      7134      7135      7156      7134      7135      7157
      7136      7135      7156      7136      7135      7157      7156      7135      7157
      7135      7136      7137      7136      7137      7138      7136      7137      7139
      7136      7137      7140      7138      7137      7139      7138      7137      7140
      7139      7137      7140      7137      7140      7141      7137      7140      7142
      7137      7140      7143      7141      7140      7142      7141      7140      7143
      7142      7140      7143      7140      7143      7144      7140      7143      7148
      7140      7143      7152      7144      7143      7148      7144      7143      7152
      7148      7143      7152      7143      7144      7145      7143      7144      7146
      7143      7144      7147      7145      7144      7146      7145      7144      7147
      7146      7144      7147      7143      7148      7149      7143      7148      7150
      7143      7148      7151      7149      7148      7150      7149      7148      7151
      7150      7148      7151      7143      7152      7153      7143      7152      7154
      7143      7152      7155      7153      7152      7154      7153      7152      7155
      7154      7152      7155      7129      7158      7159      7161      7159      7158
      7161      7159      7160      7158      7159      7160      7159      7161      7162
      7159      7161      7163      7159      7161      7164      7162      7161      7163
      7162      7161      7164      7163      7161      7164      7161      7164      7165
      7161      7164      7166      7161      7164      7167      7165      7164      7166
      7165      7164      7167      7166      7164      7167      7164      7167      7168
      7164      7167      7169      7164      7167      7170      7168      7167      7169
      7168      7167      7170      7169      7167      7170      7167      7170      7171
      7167      7170      7172      7167      7170      7173      7171      7170      7172
      7171      7170      7173      7172      7170      7173      7170      7173      7174
      7170      7173      7175      7170      7173      7176      7174      7173      7175
      7174      7173      7176      7175      7173      7176      7173      7176      7177
      7173      7176      7178      7173      7176      7179      7177      7176      7178
      7177      7176      7179      7178      7176      7179      7176      7179      7180
      7176      7179      7181      7176      7179      7182      7180      7179      7181
      7180      7179      7182      7181      7179      7182      7179      7182      7183
      7179      7182      7184      7183      7182      7184      7182      7184      7185
      7182      7184      7186      7185      7184      7186      7184      7186      7187
      7184      7186      7188      7184      7186      7189      7187      7186      7188
      7187      7186      7189      7188      7186      7189      7186      7189      7190
      7186      7189      7191      7186      7189      7192      7190      7189      7191
      7190      7189      7192      7191      7189      7192      7189      7192      7193
      7189      7192      7194      7189      7192      7195      7193      7192      7194
      7193      7192      7195      7194      7192      7195      7192      7195      7196
      7192      7195      7197      7192      7195      7198      7196      7195      7197
      7196      7195      7198      7197      7195      7198      7195      7198      7199
      7195      7198      7200      7195      7198      7201      7199      7198      7200
      7199      7198      7201      7200      7198      7201      7198      7201      7202
      7198      7201      7203      7198      7201      7204      7202      7201      7203
      7202      7201      7204      7203      7201      7204      7201      7204      7205
      7201      7204      7206      7201      7204      7207      7205      7204      7206
      7205      7204      7207      7206      7204      7207      7204      7207      7208
      7204      7207      7209      7204      7207      7210      7208      7207      7209
      7208      7207      7210      7209      7207      7210      7212      7211      7213
      7212      7211      7214      7212      7211      7215      7213      7211      7214
      7213      7211      7215      7214      7211      7215      7211      7215      7216
      7211      7215      7217      7211      7215      7218      7216      7215      7217
      7216      7215      7218      7217      7215      7218      7215      7218      7219
      7215      7218      7220      7215      7218      7221      7219      7218      7220
      7219      7218      7221      7220      7218      7221      7218      7221      7222
      7218      7221      7223      7218      7221      7224      7222      7221      7223
      7222      7221      7224      7223      7221      7224      7221      7224      7225
      7221      7224      7226      7221      7224      7227      7225      7224      7226
      7225      7224      7227      7226      7224      7227      7224      7227      7228
      7224      7227      7229      7224      7227      7230      7228      7227      7229
      7228      7227      7230      7229      7227      7230      7227      7230      7231
      7227      7230      7232      7227      7230      7233      7231      7230      7232
      7231      7230      7233      7232      7230      7233      7230      7233      7234
      7230      7233      7235      7230      7233      7236      7234      7233      7235
      7234      7233      7236      7235      7233      7236      7233      7236      7237
      7233      7236      7238      7233      7236      7239      7237      7236      7238
      7237      7236      7239      7238      7236      7239      7236      7239      7240
      7236      7239      7241      7236      7239      7242      7240      7239      7241
      7240      7239      7242      7241      7239      7242      7239      7242      7243
      7239      7242      7244      7239      7242      7245      7243      7242      7244
      7243      7242      7245      7244      7242      7245      7242      7245      7246
      7242      7245      7247      7242      7245      7248      7246      7245      7247
      7246      7245      7248      7247      7245      7248      7245      7248      7249
      7245      7248      7250      7245      7248      7251      7249      7248      7250
      7249      7248      7251      7250      7248      7251      7248      7251      7252
      7248      7251      7253      7248      7251      7254      7252      7251      7253
      7252      7251      7254      7253      7251      7254      7257      7254      7251
      7257      7254      7255      7257      7254      7256      7251      7254      7255
      7251      7254      7256      7255      7254      7256      7254      7257      7258
      7254      7257      7259      7258      7257      7259      7257      7259      7260
      7259      7260      7261      7259      7260      7262      7259      7260      7263
      7261      7260      7262      7261      7260      7263      7262      7260      7263
      7260      7263      7264      7260      7263      7265      7260      7263      7292
      7264      7263      7265      7264      7263      7292      7265      7263      7292
      7263      7265      7266      7263      7265      7267      7263      7265      7268
      7266      7265      7267      7266      7265      7268      7267      7265      7268
      7265      7268      7269      7268      7269      7270      7268      7269      7290
      7268      7269      7291      7270      7269      7290      7270      7269      7291
      7290      7269      7291      7269      7270      7271      7270      7271      7272
      7270      7271      7273      7270      7271      7274      7272      7271      7273
      7272      7271      7274      7273      7271      7274      7271      7274      7275
      7271      7274      7276      7271      7274      7277      7275      7274      7276
      7275      7274      7277      7276      7274      7277      7274      7277      7278
      7274      7277      7282      7274      7277      7286      7278      7277      7282
      7278      7277      7286      7282      7277      7286      7277      7278      7279
      7277      7278      7280      7277      7278      7281      7279      7278      7280
      7279      7278      7281      7280      7278      7281      7277      7282      7283
      7277      7282      7284      7277      7282      7285      7283      7282      7284
      7283      7282      7285      7284      7282      7285      7277      7286      7287
      7277      7286      7288      7277      7286      7289      7287      7286      7288
      7287      7286      7289      7288      7286      7289      7263      7292      7293
      7295      7293      7292      7295      7293      7294      7292      7293      7294
      7293      7295      7296      7293      7295      7297      7293      7295      7298
      7296      7295      7297      7296      7295      7298      7297      7295      7298
      7295      7298      7299      7295      7298      7300      7295      7298      7301
      7299      7298      7300      7299      7298      7301      7300      7298      7301
      7298      7301      7302      7298      7301      7303      7298      7301      7304
      7302      7301      7303      7302      7301      7304      7303      7301      7304
      7301      7304      7305      7301      7304      7306      7301      7304      7307
      7305      7304      7306      7305      7304      7307      7306      7304      7307
      7304      7307      7308      7304      7307      7309      7304      7307      7310
      7308      7307      7309      7308      7307      7310      7309      7307      7310
      7307      7310      7311      7307      7310      7312      7307      7310      7313
      7311      7310      7312      7311      7310      7313      7312      7310      7313
      7310      7313      7314      7310      7313      7315      7310      7313      7316
      7314      7313      7315      7314      7313      7316      7315      7313      7316
      7313      7316      7317      7313      7316      7318      7317      7316      7318
      7316      7318      7319      7316      7318      7320      7319      7318      7320
      7318      7320      7321      7318      7320      7322      7318      7320      7323
      7321      7320      7322      7321      7320      7323      7322      7320      7323
      7320      7323      7324      7320      7323      7325      7320      7323      7326
      7324      7323      7325      7324      7323      7326      7325      7323      7326
      7323      7326      7327      7323      7326      7328      7323      7326      7329
      7327      7326      7328      7327      7326      7329      7328      7326      7329
      7326      7329      7330      7326      7329      7331      7326      7329      7332
      7330      7329      7331      7330      7329      7332      7331      7329      7332
      7329      7332      7333      7329      7332      7334      7329      7332      7335
      7333      7332      7334      7333      7332      7335      7334      7332      7335
      7332      7335      7336      7332      7335      7337      7332      7335      7338
      7336      7335      7337      7336      7335      7338      7337      7335      7338
      7335      7338      7339      7335      7338      7340      7335      7338      7341
      7339      7338      7340      7339      7338      7341      7340      7338      7341
      7338      7341      7342      7338      7341      7343      7338      7341      7344
      7342      7341      7343      7342      7341      7344      7343      7341      7344
      7346      7345      7347      7346      7345      7348      7346      7345      7349
      7347      7345      7348      7347      7345      7349      7348      7345      7349
      7345      7349      7350      7345      7349      7351      7345      7349      7352
      7350      7349      7351      7350      7349      7352      7351      7349      7352
      7349      7352      7353      7349      7352      7354      7349      7352      7355
      7353      7352      7354      7353      7352      7355      7354      7352      7355
      7352      7355      7356      7352      7355      7357      7352      7355      7358
      7356      7355      7357      7356      7355      7358      7357      7355      7358
      7355      7358      7359      7355      7358      7360      7355      7358      7361
      7359      7358      7360      7359      7358      7361      7360      7358      7361
      7358      7361      7362      7358      7361      7363      7358      7361      7364
      7362      7361      7363      7362      7361      7364      7363      7361      7364
      7361      7364      7365      7361      7364      7366      7361      7364      7367
      7365      7364      7366      7365      7364      7367      7366      7364      7367
      7364      7367      7368      7364      7367      7369      7364      7367      7370
      7368      7367      7369      7368      7367      7370      7369      7367      7370
      7367      7370      7371      7367      7370      7372      7367      7370      7373
      7371      7370      7372      7371      7370      7373      7372      7370      7373
      7370      7373      7374      7370      7373      7375      7370      7373      7376
      7374      7373      7375      7374      7373      7376      7375      7373      7376
      7373      7376      7377      7373      7376      7378      7373      7376      7379
      7377      7376      7378      7377      7376      7379      7378      7376      7379
      7376      7379      7380      7376      7379      7381      7376      7379      7382
      7380      7379      7381      7380      7379      7382      7381      7379      7382
      7379      7382      7383      7379      7382      7384      7379      7382      7385
      7383      7382      7384      7383      7382      7385      7384      7382      7385
      7382      7385      7386      7382      7385      7387      7382      7385      7388
      7386      7385      7387      7386      7385      7388      7387      7385      7388
      7391      7388      7385      7391      7388      7389      7391      7388      7390
      7385      7388      7389      7385      7388      7390      7389      7388      7390
      7388      7391      7392      7388      7391      7393      7392      7391      7393
      7391      7393      7394      7393      7394      7395      7393      7394      7396
      7393      7394      7397      7395      7394      7396      7395      7394      7397
      7396      7394      7397      7394      7397      7398      7394      7397      7399
      7394      7397      7426      7398      7397      7399      7398      7397      7426
      7399      7397      7426      7397      7399      7400      7397      7399      7401
      7397      7399      7402      7400      7399      7401      7400      7399      7402
      7401      7399      7402      7399      7402      7403      7402      7403      7404
      7402      7403      7424      7402      7403      7425      7404      7403      7424
      7404      7403      7425      7424      7403      7425      7403      7404      7405
      7404      7405      7406      7404      7405      7407      7404      7405      7408
      7406      7405      7407      7406      7405      7408      7407      7405      7408
      7405      7408      7409      7405      7408      7410      7405      7408      7411
      7409      7408      7410      7409      7408      7411      7410      7408      7411
      7408      7411      7412      7408      7411      7416      7408      7411      7420
      7412      7411      7416      7412      7411      7420      7416      7411      7420
      7411      7412      7413      7411      7412      7414      7411      7412      7415
      7413      7412      7414      7413      7412      7415      7414      7412      7415
      7411      7416      7417      7411      7416      7418      7411      7416      7419
      7417      7416      7418      7417      7416      7419      7418      7416      7419
      7411      7420      7421      7411      7420      7422      7411      7420      7423
      7421      7420      7422      7421      7420      7423      7422      7420      7423
      7397      7426      7427      7429      7427      7426      7429      7427      7428
      7426      7427      7428      7427      7429      7430      7427      7429      7431
      7427      7429      7432      7430      7429      7431      7430      7429      7432
      7431      7429      7432      7429      7432      7433      7429      7432      7434
      7429      7432      7435      7433      7432      7434      7433      7432      7435
      7434      7432      7435      7432      7435      7436      7432      7435      7437
      7432      7435      7438      7436      7435      7437      7436      7435      7438
      7437      7435      7438      7435      7438      7439      7435      7438      7440
      7435      7438      7441      7439      7438      7440      7439      7438      7441
      7440      7438      7441      7438      7441      7442      7438      7441      7443
      7438      7441      7444      7442      7441      7443      7442      7441      7444
      7443      7441      7444      7441      7444      7445      7441      7444      7446
      7441      7444      7447      7445      7444      7446      7445      7444      7447
      7446      7444      7447      7444      7447      7448      7444      7447      7449
      7444      7447      7450      7448      7447      7449      7448      7447      7450
      7449      7447      7450      7447      7450      7451      7447      7450      7452
      7451      7450      7452      7450      7452      7453      7450      7452      7454
      7453      7452      7454      7452      7454      7455      7452      7454      7456
      7452      7454      7457      7455      7454      7456      7455      7454      7457
      7456      7454      7457      7454      7457      7458      7454      7457      7459
      7454      7457      7460      7458      7457      7459      7458      7457      7460
      7459      7457      7460      7457      7460      7461      7457      7460      7462
      7457      7460      7463      7461      7460      7462      7461      7460      7463
      7462      7460      7463      7460      7463      7464      7460      7463      7465
      7460      7463      7466      7464      7463      7465      7464      7463      7466
      7465      7463      7466      7463      7466      7467      7463      7466      7468
      7463      7466      7469      7467      7466      7468      7467      7466      7469
      7468      7466      7469      7466      7469      7470      7466      7469      7471
      7466      7469      7472      7470      7469      7471      7470      7469      7472
      7471      7469      7472      7469      7472      7473      7469      7472      7474
      7469      7472      7475      7473      7472      7474      7473      7472      7475
      7474      7472      7475      7472      7475      7476      7472      7475      7477
      7472      7475      7478      7476      7475      7477      7476      7475      7478
      7477      7475      7478      7480      7479      7481      7480      7479      7482
      7480      7479      7483      7481      7479      7482      7481      7479      7483
      7482      7479      7483      7479      7483      7484      7479      7483      7485
      7479      7483      7486      7484      7483      7485      7484      7483      7486
      7485      7483      7486      7483      7486      7487      7483      7486      7488
      7483      7486      7489      7487      7486      7488      7487      7486      7489
      7488      7486      7489      7486      7489      7490      7486      7489      7491
      7486      7489      7492      7490      7489      7491      7490      7489      7492
      7491      7489      7492      7489      7492      7493      7489      7492      7494
      7489      7492      7495      7493      7492      7494      7493      7492      7495
      7494      7492      7495      7492      7495      7496      7492      7495      7497
      7492      7495      7498      7496      7495      7497      7496      7495      7498
      7497      7495      7498      7495      7498      7499      7495      7498      7500
      7495      7498      7501      7499      7498      7500      7499      7498      7501
      7500      7498      7501      7498      7501      7502      7498      7501      7503
      7498      7501      7504      7502      7501      7503      7502      7501      7504
      7503      7501      7504      7501      7504      7505      7501      7504      7506
      7501      7504      7507      7505      7504      7506      7505      7504      7507
      7506      7504      7507      7504      7507      7508      7504      7507      7509
      7504      7507      7510      7508      7507      7509      7508      7507      7510
      7509      7507      7510      7507      7510      7511      7507      7510      7512
      7507      7510      7513      7511      7510      7512      7511      7510      7513
      7512      7510      7513      7510      7513      7514      7510      7513      7515
      7510      7513      7516      7514      7513      7515      7514      7513      7516
      7515      7513      7516      7513      7516      7517      7513      7516      7518
      7513      7516      7519      7517      7516      7518      7517      7516      7519
      7518      7516      7519      7516      7519      7520      7516      7519      7521
      7516      7519      7522      7520      7519      7521      7520      7519      7522
      7521      7519      7522      7525      7522      7519      7525      7522      7523
      7525      7522      7524      7519      7522      7523      7519      7522      7524
      7523      7522      7524      7522      7525      7526      7522      7525      7527
      7526      7525      7527      7525      7527      7528      7527      7528      7529
      7527      7528      7530      7527      7528      7531      7529      7528      7530
      7529      7528      7531      7530      7528      7531      7528      7531      7532
      7528      7531      7533      7528      7531      7560      7532      7531      7533
      7532      7531      7560      7533      7531      7560      7531      7533      7534
      7531      7533      7535      7531      7533      7536      7534      7533      7535
      7534      7533      7536      7535      7533      7536      7533      7536      7537
      7536      7537      7538      7536      7537      7558      7536      7537      7559
      7538      7537      7558      7538      7537      7559      7558      7537      7559
      7537      7538      7539      7538      7539      7540      7538      7539      7541
      7538      7539      7542      7540      7539      7541      7540      7539      7542
      7541      7539      7542      7539      7542      7543      7539      7542      7544
      7539      7542      7545      7543      7542      7544      7543      7542      7545
      7544      7542      7545      7542      7545      7546      7542      7545      7550
      7542      7545      7554      7546      7545      7550      7546      7545      7554
      7550      7545      7554      7545      7546      7547      7545      7546      7548
      7545      7546      7549      7547      7546      7548      7547      7546      7549
      7548      7546      7549      7545      7550      7551      7545      7550      7552
      7545      7550      7553      7551      7550      7552      7551      7550      7553
      7552      7550      7553      7545      7554      7555      7545      7554      7556
      7545      7554      7557      7555      7554      7556      7555      7554      7557
      7556      7554      7557      7531      7560      7561      7563      7561      7560
      7563      7561      7562      7560      7561      7562      7561      7563      7564
      7561      7563      7565      7561      7563      7566      7564      7563      7565
      7564      7563      7566      7565      7563      7566      7563      7566      7567
      7563      7566      7568      7563      7566      7569      7567      7566      7568
      7567      7566      7569      7568      7566      7569      7566      7569      7570
      7566      7569      7571      7566      7569      7572      7570      7569      7571
      7570      7569      7572      7571      7569      7572      7569      7572      7573
      7569      7572      7574      7569      7572      7575      7573      7572      7574
      7573      7572      7575      7574      7572      7575      7572      7575      7576
      7572      7575      7577      7572      7575      7578      7576      7575      7577
      7576      7575      7578      7577      7575      7578      7575      7578      7579
      7575      7578      7580      7575      7578      7581      7579      7578      7580
      7579      7578      7581      7580      7578      7581      7578      7581      7582
      7578      7581      7583      7578      7581      7584      7582      7581      7583
      7582      7581      7584      7583      7581      7584      7581      7584      7585
      7581      7584      7586      7585      7584      7586      7584      7586      7587
      7584      7586      7588      7587      7586      7588      7586      7588      7589
      7586      7588      7590      7586      7588      7591      7589      7588      7590
      7589      7588      7591      7590      7588      7591      7588      7591      7592
      7588      7591      7593      7588      7591      7594      7592      7591      7593
      7592      7591      7594      7593      7591      7594      7591      7594      7595
      7591      7594      7596      7591      7594      7597      7595      7594      7596
      7595      7594      7597      7596      7594      7597      7594      7597      7598
      7594      7597      7599      7594      7597      7600      7598      7597      7599
      7598      7597      7600      7599      7597      7600      7597      7600      7601
      7597      7600      7602      7597      7600      7603      7601      7600      7602
      7601      7600      7603      7602      7600      7603      7600      7603      7604
      7600      7603      7605      7600      7603      7606      7604      7603      7605
      7604      7603      7606      7605      7603      7606      7603      7606      7607
      7603      7606      7608      7603      7606      7609      7607      7606      7608
      7607      7606      7609      7608      7606      7609      7606      7609      7610
      7606      7609      7611      7606      7609      7612      7610      7609      7611
      7610      7609      7612      7611      7609      7612      7614      7613      7615
      7614      7613      7616      7614      7613      7617      7615      7613      7616
      7615      7613      7617      7616      7613      7617      7613      7617      7618
      7613      7617      7619      7613      7617      7620      7618      7617      7619
      7618      7617      7620      7619      7617      7620      7617      7620      7621
      7617      7620      7622      7617      7620      7623      7621      7620      7622
      7621      7620      7623      7622      7620      7623      7620      7623      7624
      7620      7623      7625      7620      7623      7626      7624      7623      7625
      7624      7623      7626      7625      7623      7626      7623      7626      7627
      7623      7626      7628      7623      7626      7629      7627      7626      7628
      7627      7626      7629      7628      7626      7629      7626      7629      7630
      7626      7629      7631      7626      7629      7632      7630      7629      7631
      7630      7629      7632      7631      7629      7632      7629      7632      7633
      7629      7632      7634      7629      7632      7635      7633      7632      7634
      7633      7632      7635      7634      7632      7635      7632      7635      7636
      7632      7635      7637      7632      7635      7638      7636      7635      7637
      7636      7635      7638      7637      7635      7638      7635      7638      7639
      7635      7638      7640      7635      7638      7641      7639      7638      7640
      7639      7638      7641      7640      7638      7641      7638      7641      7642
      7638      7641      7643      7638      7641      7644      7642      7641      7643
      7642      7641      7644      7643      7641      7644      7641      7644      7645
      7641      7644      7646      7641      7644      7647      7645      7644      7646
      7645      7644      7647      7646      7644      7647      7644      7647      7648
      7644      7647      7649      7644      7647      7650      7648      7647      7649
      7648      7647      7650      7649      7647      7650      7647      7650      7651
      7647      7650      7652      7647      7650      7653      7651      7650      7652
      7651      7650      7653      7652      7650      7653      7650      7653      7654
      7650      7653      7655      7650      7653      7656      7654      7653      7655
      7654      7653      7656      7655      7653      7656      7659      7656      7653
      7659      7656      7657      7659      7656      7658      7653      7656      7657
      7653      7656      7658      7657      7656      7658      7656      7659      7660
      7656      7659      7661      7660      7659      7661      7659      7661      7662
      7661      7662      7663      7661      7662      7664      7661      7662      7665
      7663      7662      7664      7663      7662      7665      7664      7662      7665
      7662      7665      7666      7662      7665      7667      7662      7665      7694
      7666      7665      7667      7666      7665      7694      7667      7665      7694
      7665      7667      7668      7665      7667      7669      7665      7667      7670
      7668      7667      7669      7668      7667      7670      7669      7667      7670
      7667      7670      7671      7670      7671      7672      7670      7671      7692
      7670      7671      7693      7672      7671      7692      7672      7671      7693
      7692      7671      7693      7671      7672      7673      7672      7673      7674
      7672      7673      7675      7672      7673      7676      7674      7673      7675
      7674      7673      7676      7675      7673      7676      7673      7676      7677
      7673      7676      7678      7673      7676      7679      7677      7676      7678
      7677      7676      7679      7678      7676      7679      7676      7679      7680
      7676      7679      7684      7676      7679      7688      7680      7679      7684
      7680      7679      7688      7684      7679      7688      7679      7680      7681
      7679      7680      7682      7679      7680      7683      7681      7680      7682
      7681      7680      7683      7682      7680      7683      7679      7684      7685
      7679      7684      7686      7679      7684      7687      7685      7684      7686
      7685      7684      7687      7686      7684      7687      7679      7688      7689
      7679      7688      7690      7679      7688      7691      7689      7688      7690
      7689      7688      7691      7690      7688      7691      7665      7694      7695
      7697      7695      7694      7697      7695      7696      7694      7695      7696
      7695      7697      7698      7695      7697      7699      7695      7697      7700
      7698      7697      7699      7698      7697      7700      7699      7697      7700
      7697      7700      7701      7697      7700      7702      7697      7700      7703
      7701      7700      7702      7701      7700      7703      7702      7700      7703
      7700      7703      7704      7700      7703      7705      7700      7703      7706
      7704      7703      7705      7704      7703      7706      7705      7703      7706
      7703      7706      7707      7703      7706      7708      7703      7706      7709
      7707      7706      7708      7707      7706      7709      7708      7706      7709
      7706      7709      7710      7706      7709      7711      7706      7709      7712
      7710      7709      7711      7710      7709      7712      7711      7709      7712
      7709      7712      7713      7709      7712      7714      7709      7712      7715
      7713      7712      7714      7713      7712      7715      7714      7712      7715
      7712      7715      7716      7712      7715      7717      7712      7715      7718
      7716      7715      7717      7716      7715      7718      7717      7715      7718
      7715      7718      7719      7715      7718      7720      7719      7718      7720
      7718      7720      7721      7718      7720      7722      7721      7720      7722
      7720      7722      7723      7720      7722      7724      7720      7722      7725
      7723      7722      7724      7723      7722      7725      7724      7722      7725
      7722      7725      7726      7722      7725      7727      7722      7725      7728
      7726      7725      7727      7726      7725      7728      7727      7725      7728
      7725      7728      7729      7725      7728      7730      7725      7728      7731
      7729      7728      7730      7729      7728      7731      7730      7728      7731
      7728      7731      7732      7728      7731      7733      7728      7731      7734
      7732      7731      7733      7732      7731      7734      7733      7731      7734
      7731      7734      7735      7731      7734      7736      7731      7734      7737
      7735      7734      7736      7735      7734      7737      7736      7734      7737
      7734      7737      7738      7734      7737      7739      7734      7737      7740
      7738      7737      7739      7738      7737      7740      7739      7737      7740
      7737      7740      7741      7737      7740      7742      7737      7740      7743
      7741      7740      7742      7741      7740      7743      7742      7740      7743
      7740      7743      7744      7740      7743      7745      7740      7743      7746
      7744      7743      7745      7744      7743      7746      7745      7743      7746
      7748      7747      7749      7748      7747      7750      7748      7747      7751
      7749      7747      7750      7749      7747      7751      7750      7747      7751
      7747      7751      7752      7747      7751      7753      7747      7751      7754
      7752      7751      7753      7752      7751      7754      7753      7751      7754
      7751      7754      7755      7751      7754      7756      7751      7754      7757
      7755      7754      7756      7755      7754      7757      7756      7754      7757
      7754      7757      7758      7754      7757      7759      7754      7757      7760
      7758      7757      7759      7758      7757      7760      7759      7757      7760
      7757      7760      7761      7757      7760      7762      7757      7760      7763
      7761      7760      7762      7761      7760      7763      7762      7760      7763
      7760      7763      7764      7760      7763      7765      7760      7763      7766
      7764      7763      7765      7764      7763      7766      7765      7763      7766
      7763      7766      7767      7763      7766      7768      7763      7766      7769
      7767      7766      7768      7767      7766      7769      7768      7766      7769
      7766      7769      7770      7766      7769      7771      7766      7769      7772
      7770      7769      7771      7770      7769      7772      7771      7769      7772
      7769      7772      7773      7769      7772      7774      7769      7772      7775
      7773      7772      7774      7773      7772      7775      7774      7772      7775
      7772      7775      7776      7772      7775      7777      7772      7775      7778
      7776      7775      7777      7776      7775      7778      7777      7775      7778
      7775      7778      7779      7775      7778      7780      7775      7778      7781
      7779      7778      7780      7779      7778      7781      7780      7778      7781
      7778      7781      7782      7778      7781      7783      7778      7781      7784
      7782      7781      7783      7782      7781      7784      7783      7781      7784
      7781      7784      7785      7781      7784      7786      7781      7784      7787
      7785      7784      7786      7785      7784      7787      7786      7784      7787
      7784      7787      7788      7784      7787      7789      7784      7787      7790
      7788      7787      7789      7788      7787      7790      7789      7787      7790
      7793      7790      7787      7793      7790      7791      7793      7790      7792
      7787      7790      7791      7787      7790      7792      7791      7790      7792
      7790      7793      7794      7790      7793      7795      7794      7793      7795
      7793      7795      7796      7795      7796      7797      7795      7796      7798
      7795      7796      7799      7797      7796      7798      7797      7796      7799
      7798      7796      7799      7796      7799      7800      7796      7799      7801
      7796      7799      7828      7800      7799      7801      7800      7799      7828
      7801      7799      7828      7799      7801      7802      7799      7801      7803
      7799      7801      7804      7802      7801      7803      7802      7801      7804
      7803      7801      7804      7801      7804      7805      7804      7805      7806
      7804      7805      7826      7804      7805      7827      7806      7805      7826
      7806      7805      7827      7826      7805      7827      7805      7806      7807
      7806      7807      7808      7806      7807      7809      7806      7807      7810
      7808      7807      7809      7808      7807      7810      7809      7807      7810
      7807      7810      7811      7807      7810      7812      7807      7810      7813
      7811      7810      7812      7811      7810      7813      7812      7810      7813
      7810      7813      7814      7810      7813      7818      7810      7813      7822
      7814      7813      7818      7814      7813      7822      7818      7813      7822
      7813      7814      7815      7813      7814      7816      7813      7814      7817
      7815      7814      7816      7815      7814      7817      7816      7814      7817
      7813      7818      7819      7813      7818      7820      7813      7818      7821
      7819      7818      7820      7819      7818      7821      7820      7818      7821
      7813      7822      7823      7813      7822      7824      7813      7822      7825
      7823      7822      7824      7823      7822      7825      7824      7822      7825
      7799      7828      7829      7831      7829      7828      7831      7829      7830
      7828      7829      7830      7829      7831      7832      7829      7831      7833
      7829      7831      7834      7832      7831      7833      7832      7831      7834
      7833      7831      7834      7831      7834      7835      7831      7834      7836
      7831      7834      7837      7835      7834      7836      7835      7834      7837
      7836      7834      7837      7834      7837      7838      7834      7837      7839
      7834      7837      7840      7838      7837      7839      7838      7837      7840
      7839      7837      7840      7837      7840      7841      7837      7840      7842
      7837      7840      7843      7841      7840      7842      7841      7840      7843
      7842      7840      7843      7840      7843      7844      7840      7843      7845
      7840      7843      7846      7844      7843      7845      7844      7843      7846
      7845      7843      7846      7843      7846      7847      7843      7846      7848
      7843      7846      7849      7847      7846      7848      7847      7846      7849
      7848      7846      7849      7846      7849      7850      7846      7849      7851
      7846      7849      7852      7850      7849      7851      7850      7849      7852
      7851      7849      7852      7849      7852      7853      7849      7852      7854
      7853      7852      7854      7852      7854      7855      7852      7854      7856
      7855      7854      7856      7854      7856      7857      7854      7856      7858
      7854      7856      7859      7857      7856      7858      7857      7856      7859
      7858      7856      7859      7856      7859      7860      7856      7859      7861
      7856      7859      7862      7860      7859      7861      7860      7859      7862
      7861      7859      7862      7859      7862      7863      7859      7862      7864
      7859      7862      7865      7863      7862      7864      7863      7862      7865
      7864      7862      7865      7862      7865      7866      7862      7865      7867
      7862      7865      7868      7866      7865      7867      7866      7865      7868
      7867      7865      7868      7865      7868      7869      7865      7868      7870
      7865      7868      7871      7869      7868      7870      7869      7868      7871
      7870      7868      7871      7868      7871      7872      7868      7871      7873
      7868      7871      7874      7872      7871      7873      7872      7871      7874
      7873      7871      7874      7871      7874      7875      7871      7874      7876
      7871      7874      7877      7875      7874      7876      7875      7874      7877
      7876      7874      7877      7874      7877      7878      7874      7877      7879
      7874      7877      7880      7878      7877      7879      7878      7877      7880
      7879      7877      7880      7882      7881      7883      7882      7881      7884
      7882      7881      7885      7883      7881      7884      7883      7881      7885
      7884      7881      7885      7881      7885      7886      7881      7885      7887
      7881      7885      7888      7886      7885      7887      7886      7885      7888
      7887      7885      7888      7885      7888      7889      7885      7888      7890
      7885      7888      7891      7889      7888      7890      7889      7888      7891
      7890      7888      7891      7888      7891      7892      7888      7891      7893
      7888      7891      7894      7892      7891      7893      7892      7891      7894
      7893      7891      7894      7891      7894      7895      7891      7894      7896
      7891      7894      7897      7895      7894      7896      7895      7894      7897
      7896      7894      7897      7894      7897      7898      7894      7897      7899
      7894      7897      7900      7898      7897      7899      7898      7897      7900
      7899      7897      7900      7897      7900      7901      7897      7900      7902
      7897      7900      7903      7901      7900      7902      7901      7900      7903
      7902      7900      7903      7900      7903      7904      7900      7903      7905
      7900      7903      7906      7904      7903      7905      7904      7903      7906
      7905      7903      7906      7903      7906      7907      7903      7906      7908
      7903      7906      7909      7907      7906      7908      7907      7906      7909
      7908      7906      7909      7906      7909      7910      7906      7909      7911
      7906      7909      7912      7910      7909      7911      7910      7909      7912
      7911      7909      7912      7909      7912      7913      7909      7912      7914
      7909      7912      7915      7913      7912      7914      7913      7912      7915
      7914      7912      7915      7912      7915      7916      7912      7915      7917
      7912      7915      7918      7916      7915      7917      7916      7915      7918
      7917      7915      7918      7915      7918      7919      7915      7918      7920
      7915      7918      7921      7919      7918      7920      7919      7918      7921
      7920      7918      7921      7918      7921      7922      7918      7921      7923
      7918      7921      7924      7922      7921      7923      7922      7921      7924
      7923      7921      7924      7927      7924      7921      7927      7924      7925
      7927      7924      7926      7921      7924      7925      7921      7924      7926
      7925      7924      7926      7924      7927      7928      7924      7927      7929
      7928      7927      7929      7927      7929      7930      7929      7930      7931
      7929      7930      7932      7929      7930      7933      7931      7930      7932
      7931      7930      7933      7932      7930      7933      7930      7933      7934
      7930      7933      7935      7930      7933      7962      7934      7933      7935
      7934      7933      7962      7935      7933      7962      7933      7935      7936
      7933      7935      7937      7933      7935      7938      7936      7935      7937
      7936      7935      7938      7937      7935      7938      7935      7938      7939
      7938      7939      7940      7938      7939      7960      7938      7939      7961
      7940      7939      7960      7940      7939      7961      7960      7939      7961
      7939      7940      7941      7940      7941      7942      7940      7941      7943
      7940      7941      7944      7942      7941      7943      7942      7941      7944
      7943      7941      7944      7941      7944      7945      7941      7944      7946
      7941      7944      7947      7945      7944      7946      7945      7944      7947
      7946      7944      7947      7944      7947      7948      7944      7947      7952
      7944      7947      7956      7948      7947      7952      7948      7947      7956
      7952      7947      7956      7947      7948      7949      7947      7948      7950
      7947      7948      7951      7949      7948      7950      7949      7948      7951
      7950      7948      7951      7947      7952      7953      7947      7952      7954
      7947      7952      7955      7953      7952      7954      7953      7952      7955
      7954      7952      7955      7947      7956      7957      7947      7956      7958
      7947      7956      7959      7957      7956      7958      7957      7956      7959
      7958      7956      7959      7933      7962      7963      7965      7963      7962
      7965      7963      7964      7962      7963      7964      7963      7965      7966
      7963      7965      7967      7963      7965      7968      7966      7965      7967
      7966      7965      7968      7967      7965      7968      7965      7968      7969
      7965      7968      7970      7965      7968      7971      7969      7968      7970
      7969      7968      7971      7970      7968      7971      7968      7971      7972
      7968      7971      7973      7968      7971      7974      7972      7971      7973
      7972      7971      7974      7973      7971      7974      7971      7974      7975
      7971      7974      7976      7971      7974      7977      7975      7974      7976
      7975      7974      7977      7976      7974      7977      7974      7977      7978
      7974      7977      7979      7974      7977      7980      7978      7977      7979
      7978      7977      7980      7979      7977      7980      7977      7980      7981
      7977      7980      7982      7977      7980      7983      7981      7980      7982
      7981      7980      7983      7982      7980      7983      7980      7983      7984
      7980      7983      7985      7980      7983      7986      7984      7983      7985
      7984      7983      7986      7985      7983      7986      7983      7986      7987
      7983      7986      7988      7987      7986      7988      7986      7988      7989
      7986      7988      7990      7989      7988      7990      7988      7990      7991
      7988      7990      7992      7988      7990      7993      7991      7990      7992
      7991      7990      7993      7992      7990      7993      7990      7993      7994
      7990      7993      7995      7990      7993      7996      7994      7993      7995
      7994      7993      7996      7995      7993      7996      7993      7996      7997
      7993      7996      7998      7993      7996      7999      7997      7996      7998
      7997      7996      7999      7998      7996      7999      7996      7999      8000
      7996      7999      8001      7996      7999      8002      8000      7999      8001
      8000      7999      8002      8001      7999      8002      7999      8002      8003
      7999      8002      8004      7999      8002      8005      8003      8002      8004
      8003      8002      8005      8004      8002      8005      8002      8005      8006
      8002      8005      8007      8002      8005      8008      8006      8005      8007
      8006      8005      8008      8007      8005      8008      8005      8008      8009
      8005      8008      8010      8005      8008      8011      8009      8008      8010
      8009      8008      8011      8010      8008      8011      8008      8011      8012
      8008      8011      8013      8008      8011      8014      8012      8011      8013
      8012      8011      8014      8013      8011      8014      8016      8015      8017
      8016      8015      8018      8016      8015      8019      8017      8015      8018
      8017      8015      8019      8018      8015      8019      8015      8019      8020
      8015      8019      8021      8015      8019      8022      8020      8019      8021
      8020      8019      8022      8021      8019      8022      8019      8022      8023
      8019      8022      8024      8019      8022      8025      8023      8022      8024
      8023      8022      8025      8024      8022      8025      8022      8025      8026
      8022      8025      8027      8022      8025      8028      8026      8025      8027
      8026      8025      8028      8027      8025      8028      8025      8028      8029
      8025      8028      8030      8025      8028      8031      8029      8028      8030
      8029      8028      8031      8030      8028      8031      8028      8031      8032
      8028      8031      8033      8028      8031      8034      8032      8031      8033
      8032      8031      8034      8033      8031      8034      8031      8034      8035
      8031      8034      8036      8031      8034      8037      8035      8034      8036
      8035      8034      8037      8036      8034      8037      8034      8037      8038
      8034      8037      8039      8034      8037      8040      8038      8037      8039
      8038      8037      8040      8039      8037      8040      8037      8040      8041
      8037      8040      8042      8037      8040      8043      8041      8040      8042
      8041      8040      8043      8042      8040      8043      8040      8043      8044
      8040      8043      8045      8040      8043      8046      8044      8043      8045
      8044      8043      8046      8045      8043      8046      8043      8046      8047
      8043      8046      8048      8043      8046      8049      8047      8046      8048
      8047      8046      8049      8048      8046      8049      8046      8049      8050
      8046      8049      8051      8046      8049      8052      8050      8049      8051
      8050      8049      8052      8051      8049      8052      8049      8052      8053
      8049      8052      8054      8049      8052      8055      8053      8052      8054
      8053      8052      8055      8054      8052      8055      8052      8055      8056
      8052      8055      8057      8052      8055      8058      8056      8055      8057
      8056      8055      8058      8057      8055      8058      8061      8058      8055
      8061      8058      8059      8061      8058      8060      8055      8058      8059
      8055      8058      8060      8059      8058      8060      8058      8061      8062
      8058      8061      8063      8062      8061      8063      8061      8063      8064
      8063      8064      8065      8063      8064      8066      8063      8064      8067
      8065      8064      8066      8065      8064      8067      8066      8064      8067
      8064      8067      8068      8064      8067      8069      8064      8067      8096
      8068      8067      8069      8068      8067      8096      8069      8067      8096
      8067      8069      8070      8067      8069      8071      8067      8069      8072
      8070      8069      8071      8070      8069      8072      8071      8069      8072
      8069      8072      8073      8072      8073      8074      8072      8073      8094
      8072      8073      8095      8074      8073      8094      8074      8073      8095
      8094      8073      8095      8073      8074      8075      8074      8075      8076
      8074      8075      8077      8074      8075      8078      8076      8075      8077
      8076      8075      8078      8077      8075      8078      8075      8078      8079
      8075      8078      8080      8075      8078      8081      8079      8078      8080
      8079      8078      8081      8080      8078      8081      8078      8081      8082
      8078      8081      8086      8078      8081      8090      8082      8081      8086
      8082      8081      8090      8086      8081      8090      8081      8082      8083
      8081      8082      8084      8081      8082      8085      8083      8082      8084
      8083      8082      8085      8084      8082      8085      8081      8086      8087
      8081      8086      8088      8081      8086      8089      8087      8086      8088
      8087      8086      8089      8088      8086      8089      8081      8090      8091
      8081      8090      8092      8081      8090      8093      8091      8090      8092
      8091      8090      8093      8092      8090      8093      8067      8096      8097
      8099      8097      8096      8099      8097      8098      8096      8097      8098
      8097      8099      8100      8097      8099      8101      8097      8099      8102
      8100      8099      8101      8100      8099      8102      8101      8099      8102
      8099      8102      8103      8099      8102      8104      8099      8102      8105
      8103      8102      8104      8103      8102      8105      8104      8102      8105
      8102      8105      8106      8102      8105      8107      8102      8105      8108
      8106      8105      8107      8106      8105      8108      8107      8105      8108
      8105      8108      8109      8105      8108      8110      8105      8108      8111
      8109      8108      8110      8109      8108      8111      8110      8108      8111
      8108      8111      8112      8108      8111      8113      8108      8111      8114
      8112      8111      8113      8112      8111      8114      8113      8111      8114
      8111      8114      8115      8111      8114      8116      8111      8114      8117
      8115      8114      8116      8115      8114      8117      8116      8114      8117
      8114      8117      8118      8114      8117      8119      8114      8117      8120
      8118      8117      8119      8118      8117      8120      8119      8117      8120
      8117      8120      8121      8117      8120      8122      8121      8120      8122
      8120      8122      8123      8120      8122      8124      8123      8122      8124
      8122      8124      8125      8122      8124      8126      8122      8124      8127
      8125      8124      8126      8125      8124      8127      8126      8124      8127
      8124      8127      8128      8124      8127      8129      8124      8127      8130
      8128      8127      8129      8128      8127      8130      8129      8127      8130
      8127      8130      8131      8127      8130      8132      8127      8130      8133
      8131      8130      8132      8131      8130      8133      8132      8130      8133
      8130      8133      8134      8130      8133      8135      8130      8133      8136
      8134      8133      8135      8134      8133      8136      8135      8133      8136
      8133      8136      8137      8133      8136      8138      8133      8136      8139
      8137      8136      8138      8137      8136      8139      8138      8136      8139
      8136      8139      8140      8136      8139      8141      8136      8139      8142
      8140      8139      8141      8140      8139      8142      8141      8139      8142
      8139      8142      8143      8139      8142      8144      8139      8142      8145
      8143      8142      8144      8143      8142      8145      8144      8142      8145
      8142      8145      8146      8142      8145      8147      8142      8145      8148
      8146      8145      8147      8146      8145      8148      8147      8145      8148
      8150      8149      8151      8150      8149      8152      8150      8149      8153
      8151      8149      8152      8151      8149      8153      8152      8149      8153
      8149      8153      8154      8149      8153      8155      8149      8153      8156
      8154      8153      8155      8154      8153      8156      8155      8153      8156
      8153      8156      8157      8153      8156      8158      8153      8156      8159
      8157      8156      8158      8157      8156      8159      8158      8156      8159
      8156      8159      8160      8156      8159      8161      8156      8159      8162
      8160      8159      8161      8160      8159      8162      8161      8159      8162
      8159      8162      8163      8159      8162      8164      8159      8162      8165
      8163      8162      8164      8163      8162      8165      8164      8162      8165
      8162      8165      8166      8162      8165      8167      8162      8165      8168
      8166      8165      8167      8166      8165      8168      8167      8165      8168
      8165      8168      8169      8165      8168      8170      8165      8168      8171
      8169      8168      8170      8169      8168      8171      8170      8168      8171
      8168      8171      8172      8168      8171      8173      8168      8171      8174
      8172      8171      8173      8172      8171      8174      8173      8171      8174
      8171      8174      8175      8171      8174      8176      8171      8174      8177
      8175      8174      8176      8175      8174      8177      8176      8174      8177
      8174      8177      8178      8174      8177      8179      8174      8177      8180
      8178      8177      8179      8178      8177      8180      8179      8177      8180
      8177      8180      8181      8177      8180      8182      8177      8180      8183
      8181      8180      8182      8181      8180      8183      8182      8180      8183
      8180      8183      8184      8180      8183      8185      8180      8183      8186
      8184      8183      8185      8184      8183      8186      8185      8183      8186
      8183      8186      8187      8183      8186      8188      8183      8186      8189
      8187      8186      8188      8187      8186      8189      8188      8186      8189
      8186      8189      8190      8186      8189      8191      8186      8189      8192
      8190      8189      8191      8190      8189      8192      8191      8189      8192
      8195      8192      8189      8195      8192      8193      8195      8192      8194
      8189      8192      8193      8189      8192      8194      8193      8192      8194
      8192      8195      8196      8192      8195      8197      8196      8195      8197
      8195      8197      8198      8197      8198      8199      8197      8198      8200
      8197      8198      8201      8199      8198      8200      8199      8198      8201
      8200      8198      8201      8198      8201      8202      8198      8201      8203
      8198      8201      8230      8202      8201      8203      8202      8201      8230
      8203      8201      8230      8201      8203      8204      8201      8203      8205
      8201      8203      8206      8204      8203      8205      8204      8203      8206
      8205      8203      8206      8203      8206      8207      8206      8207      8208
      8206      8207      8228      8206      8207      8229      8208      8207      8228
      8208      8207      8229      8228      8207      8229      8207      8208      8209
      8208      8209      8210      8208      8209      8211      8208      8209      8212
      8210      8209      8211      8210      8209      8212      8211      8209      8212
      8209      8212      8213      8209      8212      8214      8209      8212      8215
      8213      8212      8214      8213      8212      8215      8214      8212      8215
      8212      8215      8216      8212      8215      8220      8212      8215      8224
      8216      8215      8220      8216      8215      8224      8220      8215      8224
      8215      8216      8217      8215      8216      8218      8215      8216      8219
      8217      8216      8218      8217      8216      8219      8218      8216      8219
      8215      8220      8221      8215      8220      8222      8215      8220      8223
      8221      8220      8222      8221      8220      8223      8222      8220      8223
      8215      8224      8225      8215      8224      8226      8215      8224      8227
      8225      8224      8226      8225      8224      8227      8226      8224      8227
      8201      8230      8231      8233      8231      8230      8233      8231      8232
      8230      8231      8232      8231      8233      8234      8231      8233      8235
      8231      8233      8236      8234      8233      8235      8234      8233      8236
      8235      8233      8236      8233      8236      8237      8233      8236      8238
      8233      8236      8239      8237      8236      8238      8237      8236      8239
      8238      8236      8239      8236      8239      8240      8236      8239      8241
      8236      8239      8242      8240      8239      8241      8240      8239      8242
      8241      8239      8242      8239      8242      8243      8239      8242      8244
      8239      8242      8245      8243      8242      8244      8243      8242      8245
      8244      8242      8245      8242      8245      8246      8242      8245      8247
      8242      8245      8248      8246      8245      8247      8246      8245      8248
      8247      8245      8248      8245      8248      8249      8245      8248      8250
      8245      8248      8251      8249      8248      8250      8249      8248      8251
      8250      8248      8251      8248      8251      8252      8248      8251      8253
      8248      8251      8254      8252      8251      8253      8252      8251      8254
      8253      8251      8254      8251      8254      8255      8251      8254      8256
      8255      8254      8256      8254      8256      8257      8254      8256      8258
      8257      8256      8258      8256      8258      8259      8256      8258      8260
      8256      8258      8261      8259      8258      8260      8259      8258      8261
      8260      8258      8261      8258      8261      8262      8258      8261      8263
      8258      8261      8264      8262      8261      8263      8262      8261      8264
      8263      8261      8264      8261      8264      8265      8261      8264      8266
      8261      8264      8267      8265      8264      8266      8265      8264      8267
      8266      8264      8267      8264      8267      8268      8264      8267      8269
      8264      8267      8270      8268      8267      8269      8268      8267      8270
      8269      8267      8270      8267      8270      8271      8267      8270      8272
      8267      8270      8273      8271      8270      8272      8271      8270      8273
      8272      8270      8273      8270      8273      8274      8270      8273      8275
      8270      8273      8276      8274      8273      8275      8274      8273      8276
      8275      8273      8276      8273      8276      8277      8273      8276      8278
      8273      8276      8279      8277      8276      8278      8277      8276      8279
      8278      8276      8279      8276      8279      8280      8276      8279      8281
      8276      8279      8282      8280      8279      8281      8280      8279      8282
      8281      8279      8282      8284      8283      8285      8284      8283      8286
      8284      8283      8287      8285      8283      8286      8285      8283      8287
      8286      8283      8287      8283      8287      8288      8283      8287      8289
      8283      8287      8290      8288      8287      8289      8288      8287      8290
      8289      8287      8290      8287      8290      8291      8287      8290      8292
      8287      8290      8293      8291      8290      8292      8291      8290      8293
      8292      8290      8293      8290      8293      8294      8290      8293      8295
      8290      8293      8296      8294      8293      8295      8294      8293      8296
      8295      8293      8296      8293      8296      8297      8293      8296      8298
      8293      8296      8299      8297      8296      8298      8297      8296      8299
      8298      8296      8299      8296      8299      8300      8296      8299      8301
      8296      8299      8302      8300      8299      8301      8300      8299      8302
      8301      8299      8302      8299      8302      8303      8299      8302      8304
      8299      8302      8305      8303      8302      8304      8303      8302      8305
      8304      8302      8305      8302      8305      8306      8302      8305      8307
      8302      8305      8308      8306      8305      8307      8306      8305      8308
      8307      8305      8308      8305      8308      8309      8305      8308      8310
      8305      8308      8311      8309      8308      8310      8309      8308      8311
      8310      8308      8311      8308      8311      8312      8308      8311      8313
      8308      8311      8314      8312      8311      8313      8312      8311      8314
      8313      8311      8314      8311      8314      8315      8311      8314      8316
      8311      8314      8317      8315      8314      8316      8315      8314      8317
      8316      8314      8317      8314      8317      8318      8314      8317      8319
      8314      8317      8320      8318      8317      8319      8318      8317      8320
      8319      8317      8320      8317      8320      8321      8317      8320      8322
      8317      8320      8323      8321      8320      8322      8321      8320      8323
      8322      8320      8323      8320      8323      8324      8320      8323      8325
      8320      8323      8326      8324      8323      8325      8324      8323      8326
      8325      8323      8326      8329      8326      8323      8329      8326      8327
      8329      8326      8328      8323      8326      8327      8323      8326      8328
      8327      8326      8328      8326      8329      8330      8326      8329      8331
      8330      8329      8331      8329      8331      8332      8331      8332      8333
      8331      8332      8334      8331      8332      8335      8333      8332      8334
      8333      8332      8335      8334      8332      8335      8332      8335      8336
      8332      8335      8337      8332      8335      8364      8336      8335      8337
      8336      8335      8364      8337      8335      8364      8335      8337      8338
      8335      8337      8339      8335      8337      8340      8338      8337      8339
      8338      8337      8340      8339      8337      8340      8337      8340      8341
      8340      8341      8342      8340      8341      8362      8340      8341      8363
      8342      8341      8362      8342      8341      8363      8362      8341      8363
      8341      8342      8343      8342      8343      8344      8342      8343      8345
      8342      8343      8346      8344      8343      8345      8344      8343      8346
      8345      8343      8346      8343      8346      8347      8343      8346      8348
      8343      8346      8349      8347      8346      8348      8347      8346      8349
      8348      8346      8349      8346      8349      8350      8346      8349      8354
      8346      8349      8358      8350      8349      8354      8350      8349      8358
      8354      8349      8358      8349      8350      8351      8349      8350      8352
      8349      8350      8353      8351      8350      8352      8351      8350      8353
      8352      8350      8353      8349      8354      8355      8349      8354      8356
      8349      8354      8357      8355      8354      8356      8355      8354      8357
      8356      8354      8357      8349      8358      8359      8349      8358      8360
      8349      8358      8361      8359      8358      8360      8359      8358      8361
      8360      8358      8361      8335      8364      8365      8367      8365      8364
      8367      8365      8366      8364      8365      8366      8365      8367      8368
      8365      8367      8369      8365      8367      8370      8368      8367      8369
      8368      8367      8370      8369      8367      8370      8367      8370      8371
      8367      8370      8372      8367      8370      8373      8371      8370      8372
      8371      8370      8373      8372      8370      8373      8370      8373      8374
      8370      8373      8375      8370      8373      8376      8374      8373      8375
      8374      8373      8376      8375      8373      8376      8373      8376      8377
      8373      8376      8378      8373      8376      8379      8377      8376      8378
      8377      8376      8379      8378      8376      8379      8376      8379      8380
      8376      8379      8381      8376      8379      8382      8380      8379      8381
      8380      8379      8382      8381      8379      8382      8379      8382      8383
      8379      8382      8384      8379      8382      8385      8383      8382      8384
      8383      8382      8385      8384      8382      8385      8382      8385      8386
      8382      8385      8387      8382      8385      8388      8386      8385      8387
      8386      8385      8388      8387      8385      8388      8385      8388      8389
      8385      8388      8390      8389      8388      8390      8388      8390      8391
      8388      8390      8392      8391      8390      8392      8390      8392      8393
      8390      8392      8394      8390      8392      8395      8393      8392      8394
      8393      8392      8395      8394      8392      8395      8392      8395      8396
      8392      8395      8397      8392      8395      8398      8396      8395      8397
      8396      8395      8398      8397      8395      8398      8395      8398      8399
      8395      8398      8400      8395      8398      8401      8399      8398      8400
      8399      8398      8401      8400      8398      8401      8398      8401      8402
      8398      8401      8403      8398      8401      8404      8402      8401      8403
      8402      8401      8404      8403      8401      8404      8401      8404      8405
      8401      8404      8406      8401      8404      8407      8405      8404      8406
      8405      8404      8407      8406      8404      8407      8404      8407      8408
      8404      8407      8409      8404      8407      8410      8408      8407      8409
      8408      8407      8410      8409      8407      8410      8407      8410      8411
      8407      8410      8412      8407      8410      8413      8411      8410      8412
      8411      8410      8413      8412      8410      8413      8410      8413      8414
      8410      8413      8415      8410      8413      8416      8414      8413      8415
      8414      8413      8416      8415      8413      8416      8418      8417      8419
      8418      8417      8420      8418      8417      8421      8419      8417      8420
      8419      8417      8421      8420      8417      8421      8417      8421      8422
      8417      8421      8423      8417      8421      8424      8422      8421      8423
      8422      8421      8424      8423      8421      8424      8421      8424      8425
      8421      8424      8426      8421      8424      8427      8425      8424      8426
      8425      8424      8427      8426      8424      8427      8424      8427      8428
      8424      8427      8429      8424      8427      8430      8428      8427      8429
      8428      8427      8430      8429      8427      8430      8427      8430      8431
      8427      8430      8432      8427      8430      8433      8431      8430      8432
      8431      8430      8433      8432      8430      8433      8430      8433      8434
      8430      8433      8435      8430      8433      8436      8434      8433      8435
      8434      8433      8436      8435      8433      8436      8433      8436      8437
      8433      8436      8438      8433      8436      8439      8437      8436      8438
      8437      8436      8439      8438      8436      8439      8436      8439      8440
      8436      8439      8441      8436      8439      8442      8440      8439      8441
      8440      8439      8442      8441      8439      8442      8439      8442      8443
      8439      8442      8444      8439      8442      8445      8443      8442      8444
      8443      8442      8445      8444      8442      8445      8442      8445      8446
      8442      8445      8447      8442      8445      8448      8446      8445      8447
      8446      8445      8448      8447      8445      8448      8445      8448      8449
      8445      8448      8450      8445      8448      8451      8449      8448      8450
      8449      8448      8451      8450      8448      8451      8448      8451      8452
      8448      8451      8453      8448      8451      8454      8452      8451      8453
      8452      8451      8454      8453      8451      8454      8451      8454      8455
      8451      8454      8456      8451      8454      8457      8455      8454      8456
      8455      8454      8457      8456      8454      8457      8454      8457      8458
      8454      8457      8459      8454      8457      8460      8458      8457      8459
      8458      8457      8460      8459      8457      8460      8463      8460      8457
      8463      8460      8461      8463      8460      8462      8457      8460      8461
      8457      8460      8462      8461      8460      8462      8460      8463      8464
      8460      8463      8465      8464      8463      8465      8463      8465      8466
      8465      8466      8467      8465      8466      8468      8465      8466      8469
      8467      8466      8468      8467      8466      8469      8468      8466      8469
      8466      8469      8470      8466      8469      8471      8466      8469      8498
      8470      8469      8471      8470      8469      8498      8471      8469      8498
      8469      8471      8472      8469      8471      8473      8469      8471      8474
      8472      8471      8473      8472      8471      8474      8473      8471      8474
      8471      8474      8475      8474      8475      8476      8474      8475      8496
      8474      8475      8497      8476      8475      8496      8476      8475      8497
      8496      8475      8497      8475      8476      8477      8476      8477      8478
      8476      8477      8479      8476      8477      8480      8478      8477      8479
      8478      8477      8480      8479      8477      8480      8477      8480      8481
      8477      8480      8482      8477      8480      8483      8481      8480      8482
      8481      8480      8483      8482      8480      8483      8480      8483      8484
      8480      8483      8488      8480      8483      8492      8484      8483      8488
      8484      8483      8492      8488      8483      8492      8483      8484      8485
      8483      8484      8486      8483      8484      8487      8485      8484      8486
      8485      8484      8487      8486      8484      8487      8483      8488      8489
      8483      8488      8490      8483      8488      8491      8489      8488      8490
      8489      8488      8491      8490      8488      8491      8483      8492      8493
      8483      8492      8494      8483      8492      8495      8493      8492      8494
      8493      8492      8495      8494      8492      8495      8469      8498      8499
      8501      8499      8498      8501      8499      8500      8498      8499      8500
      8499      8501      8502      8499      8501      8503      8499      8501      8504
      8502      8501      8503      8502      8501      8504      8503      8501      8504
      8501      8504      8505      8501      8504      8506      8501      8504      8507
      8505      8504      8506      8505      8504      8507      8506      8504      8507
      8504      8507      8508      8504      8507      8509      8504      8507      8510
      8508      8507      8509      8508      8507      8510      8509      8507      8510
      8507      8510      8511      8507      8510      8512      8507      8510      8513
      8511      8510      8512      8511      8510      8513      8512      8510      8513
      8510      8513      8514      8510      8513      8515      8510      8513      8516
      8514      8513      8515      8514      8513      8516      8515      8513      8516
      8513      8516      8517      8513      8516      8518      8513      8516      8519
      8517      8516      8518      8517      8516      8519      8518      8516      8519
      8516      8519      8520      8516      8519      8521      8516      8519      8522
      8520      8519      8521      8520      8519      8522      8521      8519      8522
      8519      8522      8523      8519      8522      8524      8523      8522      8524
      8522      8524      8525      8522      8524      8526      8525      8524      8526
      8524      8526      8527      8524      8526      8528      8524      8526      8529
      8527      8526      8528      8527      8526      8529      8528      8526      8529
      8526      8529      8530      8526      8529      8531      8526      8529      8532
      8530      8529      8531      8530      8529      8532      8531      8529      8532
      8529      8532      8533      8529      8532      8534      8529      8532      8535
      8533      8532      8534      8533      8532      8535      8534      8532      8535
      8532      8535      8536      8532      8535      8537      8532      8535      8538
      8536      8535      8537      8536      8535      8538      8537      8535      8538
      8535      8538      8539      8535      8538      8540      8535      8538      8541
      8539      8538      8540      8539      8538      8541      8540      8538      8541
      8538      8541      8542      8538      8541      8543      8538      8541      8544
      8542      8541      8543      8542      8541      8544      8543      8541      8544
      8541      8544      8545      8541      8544      8546      8541      8544      8547
      8545      8544      8546      8545      8544      8547      8546      8544      8547
      8544      8547      8548      8544      8547      8549      8544      8547      8550
      8548      8547      8549      8548      8547      8550      8549      8547      8550
      8552      8551      8553      8552      8551      8554      8552      8551      8555
      8553      8551      8554      8553      8551      8555      8554      8551      8555
      8551      8555      8556      8551      8555      8557      8551      8555      8558
      8556      8555      8557      8556      8555      8558      8557      8555      8558
      8555      8558      8559      8555      8558      8560      8555      8558      8561
      8559      8558      8560      8559      8558      8561      8560      8558      8561
      8558      8561      8562      8558      8561      8563      8558      8561      8564
      8562      8561      8563      8562      8561      8564      8563      8561      8564
      8561      8564      8565      8561      8564      8566      8561      8564      8567
      8565      8564      8566      8565      8564      8567      8566      8564      8567
      8564      8567      8568      8564      8567      8569      8564      8567      8570
      8568      8567      8569      8568      8567      8570      8569      8567      8570
      8567      8570      8571      8567      8570      8572      8567      8570      8573
      8571      8570      8572      8571      8570      8573      8572      8570      8573
      8570      8573      8574      8570      8573      8575      8570      8573      8576
      8574      8573      8575      8574      8573      8576      8575      8573      8576
      8573      8576      8577      8573      8576      8578      8573      8576      8579
      8577      8576      8578      8577      8576      8579      8578      8576      8579
      8576      8579      8580      8576      8579      8581      8576      8579      8582
      8580      8579      8581      8580      8579      8582      8581      8579      8582
      8579      8582      8583      8579      8582      8584      8579      8582      8585
      8583      8582      8584      8583      8582      8585      8584      8582      8585
      8582      8585      8586      8582      8585      8587      8582      8585      8588
      8586      8585      8587      8586      8585      8588      8587      8585      8588
      8585      8588      8589      8585      8588      8590      8585      8588      8591
      8589      8588      8590      8589      8588      8591      8590      8588      8591
      8588      8591      8592      8588      8591      8593      8588      8591      8594
      8592      8591      8593      8592      8591      8594      8593      8591      8594
      8597      8594      8591      8597      8594      8595      8597      8594      8596
      8591      8594      8595      8591      8594      8596      8595      8594      8596
      8594      8597      8598      8594      8597      8599      8598      8597      8599
      8597      8599      8600      8599      8600      8601      8599      8600      8602
      8599      8600      8603      8601      8600      8602      8601      8600      8603
      8602      8600      8603      8600      8603      8604      8600      8603      8605
      8600      8603      8632      8604      8603      8605      8604      8603      8632
      8605      8603      8632      8603      8605      8606      8603      8605      8607
      8603      8605      8608      8606      8605      8607      8606      8605      8608
      8607      8605      8608      8605      8608      8609      8608      8609      8610
      8608      8609      8630      8608      8609      8631      8610      8609      8630
      8610      8609      8631      8630      8609      8631      8609      8610      8611
      8610      8611      8612      8610      8611      8613      8610      8611      8614
      8612      8611      8613      8612      8611      8614      8613      8611      8614
      8611      8614      8615      8611      8614      8616      8611      8614      8617
      8615      8614      8616      8615      8614      8617      8616      8614      8617
      8614      8617      8618      8614      8617      8622      8614      8617      8626
      8618      8617      8622      8618      8617      8626      8622      8617      8626
      8617      8618      8619      8617      8618      8620      8617      8618      8621
      8619      8618      8620      8619      8618      8621      8620      8618      8621
      8617      8622      8623      8617      8622      8624      8617      8622      8625
      8623      8622      8624      8623      8622      8625      8624      8622      8625
      8617      8626      8627      8617      8626      8628      8617      8626      8629
      8627      8626      8628      8627      8626      8629      8628      8626      8629
      8603      8632      8633      8635      8633      8632      8635      8633      8634
      8632      8633      8634      8633      8635      8636      8633      8635      8637
      8633      8635      8638      8636      8635      8637      8636      8635      8638
      8637      8635      8638      8635      8638      8639      8635      8638      8640
      8635      8638      8641      8639      8638      8640      8639      8638      8641
      8640      8638      8641      8638      8641      8642      8638      8641      8643
      8638      8641      8644      8642      8641      8643      8642      8641      8644
      8643      8641      8644      8641      8644      8645      8641      8644      8646
      8641      8644      8647      8645      8644      8646      8645      8644      8647
      8646      8644      8647      8644      8647      8648      8644      8647      8649
      8644      8647      8650      8648      8647      8649      8648      8647      8650
      8649      8647      8650      8647      8650      8651      8647      8650      8652
      8647      8650      8653      8651      8650      8652      8651      8650      8653
      8652      8650      8653      8650      8653      8654      8650      8653      8655
      8650      8653      8656      8654      8653      8655      8654      8653      8656
      8655      8653      8656      8653      8656      8657      8653      8656      8658
      8657      8656      8658      8656      8658      8659      8656      8658      8660
      8659      8658      8660      8658      8660      8661      8658      8660      8662
      8658      8660      8663      8661      8660      8662      8661      8660      8663
      8662      8660      8663      8660      8663      8664      8660      8663      8665
      8660      8663      8666      8664      8663      8665      8664      8663      8666
      8665      8663      8666      8663      8666      8667      8663      8666      8668
      8663      8666      8669      8667      8666      8668      8667      8666      8669
      8668      8666      8669      8666      8669      8670      8666      8669      8671
      8666      8669      8672      8670      8669      8671      8670      8669      8672
      8671      8669      8672      8669      8672      8673      8669      8672      8674
      8669      8672      8675      8673      8672      8674      8673      8672      8675
      8674      8672      8675      8672      8675      8676      8672      8675      8677
      8672      8675      8678      8676      8675      8677      8676      8675      8678
      8677      8675      8678      8675      8678      8679      8675      8678      8680
      8675      8678      8681      8679      8678      8680      8679      8678      8681
      8680      8678      8681      8678      8681      8682      8678      8681      8683
      8678      8681      8684      8682      8681      8683      8682      8681      8684
      8683      8681      8684      8686      8685      8687      8686      8685      8688
      8686      8685      8689      8687      8685      8688      8687      8685      8689
      8688      8685      8689      8685      8689      8690      8685      8689      8691
      8685      8689      8692      8690      8689      8691      8690      8689      8692
      8691      8689      8692      8689      8692      8693      8689      8692      8694
      8689      8692      8695      8693      8692      8694      8693      8692      8695
      8694      8692      8695      8692      8695      8696      8692      8695      8697
      8692      8695      8698      8696      8695      8697      8696      8695      8698
      8697      8695      8698      8695      8698      8699      8695      8698      8700
      8695      8698      8701      8699      8698      8700      8699      8698      8701
      8700      8698      8701      8698      8701      8702      8698      8701      8703
      8698      8701      8704      8702      8701      8703      8702      8701      8704
      8703      8701      8704      8701      8704      8705      8701      8704      8706
      8701      8704      8707      8705      8704      8706      8705      8704      8707
      8706      8704      8707      8704      8707      8708      8704      8707      8709
      8704      8707      8710      8708      8707      8709      8708      8707      8710
      8709      8707      8710      8707      8710      8711      8707      8710      8712
      8707      8710      8713      8711      8710      8712      8711      8710      8713
      8712      8710      8713      8710      8713      8714      8710      8713      8715
      8710      8713      8716      8714      8713      8715      8714      8713      8716
      8715      8713      8716      8713      8716      8717      8713      8716      8718
      8713      8716      8719      8717      8716      8718      8717      8716      8719
      8718      8716      8719      8716      8719      8720      8716      8719      8721
      8716      8719      8722      8720      8719      8721      8720      8719      8722
      8721      8719      8722      8719      8722      8723      8719      8722      8724
      8719      8722      8725      8723      8722      8724      8723      8722      8725
      8724      8722      8725      8722      8725      8726      8722      8725      8727
      8722      8725      8728      8726      8725      8727      8726      8725      8728
      8727      8725      8728      8731      8728      8725      8731      8728      8729
      8731      8728      8730      8725      8728      8729      8725      8728      8730
      8729      8728      8730      8728      8731      8732      8728      8731      8733
      8732      8731      8733      8731      8733      8734      8733      8734      8735
      8733      8734      8736      8733      8734      8737      8735      8734      8736
      8735      8734      8737      8736      8734      8737      8734      8737      8738
      8734      8737      8739      8734      8737      8766      8738      8737      8739
      8738      8737      8766      8739      8737      8766      8737      8739      8740
      8737      8739      8741      8737      8739      8742      8740      8739      8741
      8740      8739      8742      8741      8739      8742      8739      8742      8743
      8742      8743      8744      8742      8743      8764      8742      8743      8765
      8744      8743      8764      8744      8743      8765      8764      8743      8765
      8743      8744      8745      8744      8745      8746      8744      8745      8747
      8744      8745      8748      8746      8745      8747      8746      8745      8748
      8747      8745      8748      8745      8748      8749      8745      8748      8750
      8745      8748      8751      8749      8748      8750      8749      8748      8751
      8750      8748      8751      8748      8751      8752      8748      8751      8756
      8748      8751      8760      8752      8751      8756      8752      8751      8760
      8756      8751      8760      8751      8752      8753      8751      8752      8754
      8751      8752      8755      8753      8752      8754      8753      8752      8755
      8754      8752      8755      8751      8756      8757      8751      8756      8758
      8751      8756      8759      8757      8756      8758      8757      8756      8759
      8758      8756      8759      8751      8760      8761      8751      8760      8762
      8751      8760      8763      8761      8760      8762      8761      8760      8763
      8762      8760      8763      8737      8766      8767      8769      8767      8766
      8769      8767      8768      8766      8767      8768      8767      8769      8770
      8767      8769      8771      8767      8769      8772      8770      8769      8771
      8770      8769      8772      8771      8769      8772      8769      8772      8773
      8769      8772      8774      8769      8772      8775      8773      8772      8774
      8773      8772      8775      8774      8772      8775      8772      8775      8776
      8772      8775      8777      8772      8775      8778      8776      8775      8777
      8776      8775      8778      8777      8775      8778      8775      8778      8779
      8775      8778      8780      8775      8778      8781      8779      8778      8780
      8779      8778      8781      8780      8778      8781      8778      8781      8782
      8778      8781      8783      8778      8781      8784      8782      8781      8783
      8782      8781      8784      8783      8781      8784      8781      8784      8785
      8781      8784      8786      8781      8784      8787      8785      8784      8786
      8785      8784      8787      8786      8784      8787      8784      8787      8788
      8784      8787      8789      8784      8787      8790      8788      8787      8789
      8788      8787      8790      8789      8787      8790      8787      8790      8791
      8787      8790      8792      8791      8790      8792      8790      8792      8793
      8790      8792      8794      8793      8792      8794      8792      8794      8795
      8792      8794      8796      8792      8794      8797      8795      8794      8796
      8795      8794      8797      8796      8794      8797      8794      8797      8798
      8794      8797      8799      8794      8797      8800      8798      8797      8799
      8798      8797      8800      8799      8797      8800      8797      8800      8801
      8797      8800      8802      8797      8800      8803      8801      8800      8802
      8801      8800      8803      8802      8800      8803      8800      8803      8804
      8800      8803      8805      8800      8803      8806      8804      8803      8805
      8804      8803      8806      8805      8803      8806      8803      8806      8807
      8803      8806      8808      8803      8806      8809      8807      8806      8808
      8807      8806      8809      8808      8806      8809      8806      8809      8810
      8806      8809      8811      8806      8809      8812      8810      8809      8811
      8810      8809      8812      8811      8809      8812      8809      8812      8813
      8809      8812      8814      8809      8812      8815      8813      8812      8814
      8813      8812      8815      8814      8812      8815      8812      8815      8816
      8812      8815      8817      8812      8815      8818      8816      8815      8817
      8816      8815      8818      8817      8815      8818      8820      8819      8821
      8820      8819      8822      8820      8819      8823      8821      8819      8822
      8821      8819      8823      8822      8819      8823      8819      8823      8824
      8819      8823      8825      8819      8823      8826      8824      8823      8825
      8824      8823      8826      8825      8823      8826      8823      8826      8827
      8823      8826      8828      8823      8826      8829      8827      8826      8828
      8827      8826      8829      8828      8826      8829      8826      8829      8830
      8826      8829      8831      8826      8829      8832      8830      8829      8831
      8830      8829      8832      8831      8829      8832      8829      8832      8833
      8829      8832      8834      8829      8832      8835      8833      8832      8834
      8833      8832      8835      8834      8832      8835      8832      8835      8836
      8832      8835      8837      8832      8835      8838      8836      8835      8837
      8836      8835      8838      8837      8835      8838      8835      8838      8839
      8835      8838      8840      8835      8838      8841      8839      8838      8840
      8839      8838      8841      8840      8838      8841      8838      8841      8842
      8838      8841      8843      8838      8841      8844      8842      8841      8843
      8842      8841      8844      8843      8841      8844      8841      8844      8845
      8841      8844      8846      8841      8844      8847      8845      8844      8846
      8845      8844      8847      8846      8844      8847      8844      8847      8848
      8844      8847      8849      8844      8847      8850      8848      8847      8849
      8848      8847      8850      8849      8847      8850      8847      8850      8851
      8847      8850      8852      8847      8850      8853      8851      8850      8852
      8851      8850      8853      8852      8850      8853      8850      8853      8854
      8850      8853      8855      8850      8853      8856      8854      8853      8855
      8854      8853      8856      8855      8853      8856      8853      8856      8857
      8853      8856      8858      8853      8856      8859      8857      8856      8858
      8857      8856      8859      8858      8856      8859      8856      8859      8860
      8856      8859      8861      8856      8859      8862      8860      8859      8861
      8860      8859      8862      8861      8859      8862      8865      8862      8859
      8865      8862      8863      8865      8862      8864      8859      8862      8863
      8859      8862      8864      8863      8862      8864      8862      8865      8866
      8862      8865      8867      8866      8865      8867      8865      8867      8868
      8867      8868      8869      8867      8868      8870      8867      8868      8871
      8869      8868      8870      8869      8868      8871      8870      8868      8871
      8868      8871      8872      8868      8871      8873      8868      8871      8900
      8872      8871      8873      8872      8871      8900      8873      8871      8900
      8871      8873      8874      8871      8873      8875      8871      8873      8876
      8874      8873      8875      8874      8873      8876      8875      8873      8876
      8873      8876      8877      8876      8877      8878      8876      8877      8898
      8876      8877      8899      8878      8877      8898      8878      8877      8899
      8898      8877      8899      8877      8878      8879      8878      8879      8880
      8878      8879      8881      8878      8879      8882      8880      8879      8881
      8880      8879      8882      8881      8879      8882      8879      8882      8883
      8879      8882      8884      8879      8882      8885      8883      8882      8884
      8883      8882      8885      8884      8882      8885      8882      8885      8886
      8882      8885      8890      8882      8885      8894      8886      8885      8890
      8886      8885      8894      8890      8885      8894      8885      8886      8887
      8885      8886      8888      8885      8886      8889      8887      8886      8888
      8887      8886      8889      8888      8886      8889      8885      8890      8891
      8885      8890      8892      8885      8890      8893      8891      8890      8892
      8891      8890      8893      8892      8890      8893      8885      8894      8895
      8885      8894      8896      8885      8894      8897      8895      8894      8896
      8895      8894      8897      8896      8894      8897      8871      8900      8901
      8903      8901      8900      8903      8901      8902      8900      8901      8902
      8901      8903      8904      8901      8903      8905      8901      8903      8906
      8904      8903      8905      8904      8903      8906      8905      8903      8906
      8903      8906      8907      8903      8906      8908      8903      8906      8909
      8907      8906      8908      8907      8906      8909      8908      8906      8909
      8906      8909      8910      8906      8909      8911      8906      8909      8912
      8910      8909      8911      8910      8909      8912      8911      8909      8912
      8909      8912      8913      8909      8912      8914      8909      8912      8915
      8913      8912      8914      8913      8912      8915      8914      8912      8915
      8912      8915      8916      8912      8915      8917      8912      8915      8918
      8916      8915      8917      8916      8915      8918      8917      8915      8918
      8915      8918      8919      8915      8918      8920      8915      8918      8921
      8919      8918      8920      8919      8918      8921      8920      8918      8921
      8918      8921      8922      8918      8921      8923      8918      8921      8924
      8922      8921      8923      8922      8921      8924      8923      8921      8924
      8921      8924      8925      8921      8924      8926      8925      8924      8926
      8924      8926      8927      8924      8926      8928      8927      8926      8928
      8926      8928      8929      8926      8928      8930      8926      8928      8931
      8929      8928      8930      8929      8928      8931      8930      8928      8931
      8928      8931      8932      8928      8931      8933      8928      8931      8934
      8932      8931      8933      8932      8931      8934      8933      8931      8934
      8931      8934      8935      8931      8934      8936      8931      8934      8937
      8935      8934      8936      8935      8934      8937      8936      8934      8937
      8934      8937      8938      8934      8937      8939      8934      8937      8940
      8938      8937      8939      8938      8937      8940      8939      8937      8940
      8937      8940      8941      8937      8940      8942      8937      8940      8943
      8941      8940      8942      8941      8940      8943      8942      8940      8943
      8940      8943      8944      8940      8943      8945      8940      8943      8946
      8944      8943      8945      8944      8943      8946      8945      8943      8946
      8943      8946      8947      8943      8946      8948      8943      8946      8949
      8947      8946      8948      8947      8946      8949      8948      8946      8949
      8946      8949      8950      8946      8949      8951      8946      8949      8952
      8950      8949      8951      8950      8949      8952      8951      8949      8952
      8954      8953      8955      8954      8953      8956      8954      8953      8957
      8955      8953      8956      8955      8953      8957      8956      8953      8957
      8953      8957      8958      8953      8957      8959      8953      8957      8960
      8958      8957      8959      8958      8957      8960      8959      8957      8960
      8957      8960      8961      8957      8960      8962      8957      8960      8963
      8961      8960      8962      8961      8960      8963      8962      8960      8963
      8960      8963      8964      8960      8963      8965      8960      8963      8966
      8964      8963      8965      8964      8963      8966      8965      8963      8966
      8963      8966      8967      8963      8966      8968      8963      8966      8969
      8967      8966      8968      8967      8966      8969      8968      8966      8969
      8966      8969      8970      8966      8969      8971      8966      8969      8972
      8970      8969      8971      8970      8969      8972      8971      8969      8972
      8969      8972      8973      8969      8972      8974      8969      8972      8975
      8973      8972      8974      8973      8972      8975      8974      8972      8975
      8972      8975      8976      8972      8975      8977      8972      8975      8978
      8976      8975      8977      8976      8975      8978      8977      8975      8978
      8975      8978      8979      8975      8978      8980      8975      8978      8981
      8979      8978      8980      8979      8978      8981      8980      8978      8981
      8978      8981      8982      8978      8981      8983      8978      8981      8984
      8982      8981      8983      8982      8981      8984      8983      8981      8984
      8981      8984      8985      8981      8984      8986      8981      8984      8987
      8985      8984      8986      8985      8984      8987      8986      8984      8987
      8984      8987      8988      8984      8987      8989      8984      8987      8990
      8988      8987      8989      8988      8987      8990      8989      8987      8990
      8987      8990      8991      8987      8990      8992      8987      8990      8993
      8991      8990      8992      8991      8990      8993      8992      8990      8993
      8990      8993      8994      8990      8993      8995      8990      8993      8996
      8994      8993      8995      8994      8993      8996      8995      8993      8996
      8999      8996      8993      8999      8996      8997      8999      8996      8998
      8993      8996      8997      8993      8996      8998      8997      8996      8998
      8996      8999      9000      8996      8999      9001      9000      8999      9001
      8999      9001      9002      9001      9002      9003      9001      9002      9004
      9001      9002      9005      9003      9002      9004      9003      9002      9005
      9004      9002      9005      9002      9005      9006      9002      9005      9007
      9002      9005      9034      9006      9005      9007      9006      9005      9034
      9007      9005      9034      9005      9007      9008      9005      9007      9009
      9005      9007      9010      9008      9007      9009      9008      9007      9010
      9009      9007      9010      9007      9010      9011      9010      9011      9012
      9010      9011      9032      9010      9011      9033      9012      9011      9032
      9012      9011      9033      9032      9011      9033      9011      9012      9013
      9012      9013      9014      9012      9013      9015      9012      9013      9016
      9014      9013      9015      9014      9013      9016      9015      9013      9016
      9013      9016      9017      9013      9016      9018      9013      9016      9019
      9017      9016      9018      9017      9016      9019      9018      9016      9019
      9016      9019      9020      9016      9019      9024      9016      9019      9028
      9020      9019      9024      9020      9019      9028      9024      9019      9028
      9019      9020      9021      9019      9020      9022      9019      9020      9023
      9021      9020      9022      9021      9020      9023      9022      9020      9023
      9019      9024      9025      9019      9024      9026      9019      9024      9027
      9025      9024      9026      9025      9024      9027      9026      9024      9027
      9019      9028      9029      9019      9028      9030      9019      9028      9031
      9029      9028      9030      9029      9028      9031      9030      9028      9031
      9005      9034      9035      9037      9035      9034      9037      9035      9036
      9034      9035      9036      9035      9037      9038      9035      9037      9039
      9035      9037      9040      9038      9037      9039      9038      9037      9040
      9039      9037      9040      9037      9040      9041      9037      9040      9042
      9037      9040      9043      9041      9040      9042      9041      9040      9043
      9042      9040      9043      9040      9043      9044      9040      9043      9045
      9040      9043      9046      9044      9043      9045      9044      9043      9046
      9045      9043      9046      9043      9046      9047      9043      9046      9048
      9043      9046      9049      9047      9046      9048      9047      9046      9049
      9048      9046      9049      9046      9049      9050      9046      9049      9051
      9046      9049      9052      9050      9049      9051      9050      9049      9052
      9051      9049      9052      9049      9052      9053      9049      9052      9054
      9049      9052      9055      9053      9052      9054      9053      9052      9055
      9054      9052      9055      9052      9055      9056      9052      9055      9057
      9052      9055      9058      9056      9055      9057      9056      9055      9058
      9057      9055      9058      9055      9058      9059      9055      9058      9060
      9059      9058      9060      9058      9060      9061      9058      9060      9062
      9061      9060      9062      9060      9062      9063      9060      9062      9064
      9060      9062      9065      9063      9062      9064      9063      9062      9065
      9064      9062      9065      9062      9065      9066      9062      9065      9067
      9062      9065      9068      9066      9065      9067      9066      9065      9068
      9067      9065      9068      9065      9068      9069      9065      9068      9070
      9065      9068      9071      9069      9068      9070      9069      9068      9071
      9070      9068      9071      9068      9071      9072      9068      9071      9073
      9068      9071      9074      9072      9071      9073      9072      9071      9074
      9073      9071      9074      9071      9074      9075      9071      9074      9076
      9071      9074      9077      9075      9074      9076      9075      9074      9077
      9076      9074      9077      9074      9077      9078      9074      9077      9079
      9074      9077      9080      9078      9077      9079      9078      9077      9080
      9079      9077      9080      9077      9080      9081      9077      9080      9082
      9077      9080      9083      9081      9080      9082      9081      9080      9083
      9082      9080      9083      9080      9083      9084      9080      9083      9085
      9080      9083      9086      9084      9083      9085      9084      9083      9086
      9085      9083      9086      9088      9087      9089      9088      9087      9090
      9088      9087      9091      9089      9087      9090      9089      9087      9091
      9090      9087      9091      9087      9091      9092      9087      9091      9093
      9087      9091      9094      9092      9091      9093      9092      9091      9094
      9093      9091      9094      9091      9094      9095      9091      9094      9096
      9091      9094      9097      9095      9094      9096      9095      9094      9097
      9096      9094      9097      9094      9097      9098      9094      9097      9099
      9094      9097      9100      9098      9097      9099      9098      9097      9100
      9099      9097      9100      9097      9100      9101      9097      9100      9102
      9097      9100      9103      9101      9100      9102      9101      9100      9103
      9102      9100      9103      9100      9103      9104      9100      9103      9105
      9100      9103      9106      9104      9103      9105      9104      9103      9106
      9105      9103      9106      9103      9106      9107      9103      9106      9108
      9103      9106      9109      9107      9106      9108      9107      9106      9109
      9108      9106      9109      9106      9109      9110      9106      9109      9111
      9106      9109      9112      9110      9109      9111      9110      9109      9112
      9111      9109      9112      9109      9112      9113      9109      9112      9114
      9109      9112      9115      9113      9112      9114      9113      9112      9115
      9114      9112      9115      9112      9115      9116      9112      9115      9117
      9112      9115      9118      9116      9115      9117      9116      9115      9118
      9117      9115      9118      9115      9118      9119      9115      9118      9120
      9115      9118      9121      9119      9118      9120      9119      9118      9121
      9120      9118      9121      9118      9121      9122      9118      9121      9123
      9118      9121      9124      9122      9121      9123      9122      9121      9124
      9123      9121      9124      9121      9124      9125      9121      9124      9126
      9121      9124      9127      9125      9124      9126      9125      9124      9127
      9126      9124      9127      9124      9127      9128      9124      9127      9129
      9124      9127      9130      9128      9127      9129      9128      9127      9130
      9129      9127      9130      9133      9130      9127      9133      9130      9131
      9133      9130      9132      9127      9130      9131      9127      9130      9132
      9131      9130      9132      9130      9133      9134      9130      9133      9135
      9134      9133      9135      9133      9135      9136      9135      9136      9137
      9135      9136      9138      9135      9136      9139      9137      9136      9138
      9137      9136      9139      9138      9136      9139      9136      9139      9140
      9136      9139      9141      9136      9139      9168      9140      9139      9141
      9140      9139      9168      9141      9139      9168      9139      9141      9142
      9139      9141      9143      9139      9141      9144      9142      9141      9143
      9142      9141      9144      9143      9141      9144      9141      9144      9145
      9144      9145      9146      9144      9145      9166      9144      9145      9167
      9146      9145      9166      9146      9145      9167      9166      9145      9167
      9145      9146      9147      9146      9147      9148      9146      9147      9149
      9146      9147      9150      9148      9147      9149      9148      9147      9150
      9149      9147      9150      9147      9150      9151      9147      9150      9152
      9147      9150      9153      9151      9150      9152      9151      9150      9153
      9152      9150      9153      9150      9153      9154      9150      9153      9158
      9150      9153      9162      9154      9153      9158      9154      9153      9162
      9158      9153      9162      9153      9154      9155      9153      9154      9156
      9153      9154      9157      9155      9154      9156      9155      9154      9157
      9156      9154      9157      9153      9158      9159      9153      9158      9160
      9153      9158      9161      9159      9158      9160      9159      9158      9161
      9160      9158      9161      9153      9162      9163      9153      9162      9164
      9153      9162      9165      9163      9162      9164      9163      9162      9165
      9164      9162      9165      9139      9168      9169      9171      9169      9168
      9171      9169      9170      9168      9169      9170      9169      9171      9172
      9169      9171      9173      9169      9171      9174      9172      9171      9173
      9172      9171      9174      9173      9171      9174      9171      9174      9175
      9171      9174      9176      9171      9174      9177      9175      9174      9176
      9175      9174      9177      9176      9174      9177      9174      9177      9178
      9174      9177      9179      9174      9177      9180      9178      9177      9179
      9178      9177      9180      9179      9177      9180      9177      9180      9181
      9177      9180      9182      9177      9180      9183      9181      9180      9182
      9181      9180      9183      9182      9180      9183      9180      9183      9184
      9180      9183      9185      9180      9183      9186      9184      9183      9185
      9184      9183      9186      9185      9183      9186      9183      9186      9187
      9183      9186      9188      9183      9186      9189      9187      9186      9188
      9187      9186      9189      9188      9186      9189      9186      9189      9190
      9186      9189      9191      9186      9189      9192      9190      9189      9191
      9190      9189      9192      9191      9189      9192      9189      9192      9193
      9189      9192      9194      9193      9192      9194      9192      9194      9195
      9192      9194      9196      9195      9194      9196      9194      9196      9197
      9194      9196      9198      9194      9196      9199      9197      9196      9198
      9197      9196      9199      9198      9196      9199      9196      9199      9200
      9196      9199      9201      9196      9199      9202      9200      9199      9201
      9200      9199      9202      9201      9199      9202      9199      9202      9203
      9199      9202      9204      9199      9202      9205      9203      9202      9204
      9203      9202      9205      9204      9202      9205      9202      9205      9206
      9202      9205      9207      9202      9205      9208      9206      9205      9207
      9206      9205      9208      9207      9205      9208      9205      9208      9209
      9205      9208      9210      9205      9208      9211      9209      9208      9210
      9209      9208      9211      9210      9208      9211      9208      9211      9212
      9208      9211      9213      9208      9211      9214      9212      9211      9213
      9212      9211      9214      9213      9211      9214      9211      9214      9215
      9211      9214      9216      9211      9214      9217      9215      9214      9216
      9215      9214      9217      9216      9214      9217      9214      9217      9218
      9214      9217      9219      9214      9217      9220      9218      9217      9219
      9218      9217      9220      9219      9217      9220      9222      9221      9223
      9222      9221      9224      9222      9221      9225      9223      9221      9224
      9223      9221      9225      9224      9221      9225      9221      9225      9226
      9221      9225      9227      9221      9225      9228      9226      9225      9227
      9226      9225      9228      9227      9225      9228      9225      9228      9229
      9225      9228      9230      9225      9228      9231      9229      9228      9230
      9229      9228      9231      9230      9228      9231      9228      9231      9232
      9228      9231      9233      9228      9231      9234      9232      9231      9233
      9232      9231      9234      9233      9231      9234      9231      9234      9235
      9231      9234      9236      9231      9234      9237      9235      9234      9236
      9235      9234      9237      9236      9234      9237      9234      9237      9238
      9234      9237      9239      9234      9237      9240      9238      9237      9239
      9238      9237      9240      9239      9237      9240      9237      9240      9241
      9237      9240      9242      9237      9240      9243      9241      9240      9242
      9241      9240      9243      9242      9240      9243      9240      9243      9244
      9240      9243      9245      9240      9243      9246      9244      9243      9245
      9244      9243      9246      9245      9243      9246      9243      9246      9247
      9243      9246      9248      9243      9246      9249      9247      9246      9248
      9247      9246      9249      9248      9246      9249      9246      9249      9250
      9246      9249      9251      9246      9249      9252      9250      9249      9251
      9250      9249      9252      9251      9249      9252      9249      9252      9253
      9249      9252      9254      9249      9252      9255      9253      9252      9254
      9253      9252      9255      9254      9252      9255      9252      9255      9256
      9252      9255      9257      9252      9255      9258      9256      9255      9257
      9256      9255      9258      9257      9255      9258      9255      9258      9259
      9255      9258      9260      9255      9258      9261      9259      9258      9260
      9259      9258      9261      9260      9258      9261      9258      9261      9262
      9258      9261      9263      9258      9261      9264      9262      9261      9263
      9262      9261      9264      9263      9261      9264      9267      9264      9261
      9267      9264      9265      9267      9264      9266      9261      9264      9265
      9261      9264      9266      9265      9264      9266      9264      9267      9268
      9264      9267      9269      9268      9267      9269      9267      9269      9270
      9269      9270      9271      9269      9270      9272      9269      9270      9273
      9271      9270      9272      9271      9270      9273      9272      9270      9273
      9270      9273      9274      9270      9273      9275      9270      9273      9302
      9274      9273      9275      9274      9273      9302      9275      9273      9302
      9273      9275      9276      9273      9275      9277      9273      9275      9278
      9276      9275      9277      9276      9275      9278      9277      9275      9278
      9275      9278      9279      9278      9279      9280      9278      9279      9300
      9278      9279      9301      9280      9279      9300      9280      9279      9301
      9300      9279      9301      9279      9280      9281      9280      9281      9282
      9280      9281      9283      9280      9281      9284      9282      9281      9283
      9282      9281      9284      9283      9281      9284      9281      9284      9285
      9281      9284      9286      9281      9284      9287      9285      9284      9286
      9285      9284      9287      9286      9284      9287      9284      9287      9288
      9284      9287      9292      9284      9287      9296      9288      9287      9292
      9288      9287      9296      9292      9287      9296      9287      9288      9289
      9287      9288      9290      9287      9288      9291      9289      9288      9290
      9289      9288      9291      9290      9288      9291      9287      9292      9293
      9287      9292      9294      9287      9292      9295      9293      9292      9294
      9293      9292      9295      9294      9292      9295      9287      9296      9297
      9287      9296      9298      9287      9296      9299      9297      9296      9298
      9297      9296      9299      9298      9296      9299      9273      9302      9303
      9305      9303      9302      9305      9303      9304      9302      9303      9304
      9303      9305      9306      9303      9305      9307      9303      9305      9308
      9306      9305      9307      9306      9305      9308      9307      9305      9308
      9305      9308      9309      9305      9308      9310      9305      9308      9311
      9309      9308      9310      9309      9308      9311      9310      9308      9311
      9308      9311      9312      9308      9311      9313      9308      9311      9314
      9312      9311      9313      9312      9311      9314      9313      9311      9314
      9311      9314      9315      9311      9314      9316      9311      9314      9317
      9315      9314      9316      9315      9314      9317      9316      9314      9317
      9314      9317      9318      9314      9317      9319      9314      9317      9320
      9318      9317      9319      9318      9317      9320      9319      9317      9320
      9317      9320      9321      9317      9320      9322      9317      9320      9323
      9321      9320      9322      9321      9320      9323      9322      9320      9323
      9320      9323      9324      9320      9323      9325      9320      9323      9326
      9324      9323      9325      9324      9323      9326      9325      9323      9326
      9323      9326      9327      9323      9326      9328      9327      9326      9328
      9326      9328      9329      9326      9328      9330      9329      9328      9330
      9328      9330      9331      9328      9330      9332      9328      9330      9333
      9331      9330      9332      9331      9330      9333      9332      9330      9333
      9330      9333      9334      9330      9333      9335      9330      9333      9336
      9334      9333      9335      9334      9333      9336      9335      9333      9336
      9333      9336      9337      9333      9336      9338      9333      9336      9339
      9337      9336      9338      9337      9336      9339      9338      9336      9339
      9336      9339      9340      9336      9339      9341      9336      9339      9342
      9340      9339      9341      9340      9339      9342      9341      9339      9342
      9339      9342      9343      9339      9342      9344      9339      9342      9345
      9343      9342      9344      9343      9342      9345      9344      9342      9345
      9342      9345      9346      9342      9345      9347      9342      9345      9348
      9346      9345      9347      9346      9345      9348      9347      9345      9348
      9345      9348      9349      9345      9348      9350      9345      9348      9351
      9349      9348      9350      9349      9348      9351      9350      9348      9351
      9348      9351      9352      9348      9351      9353      9348      9351      9354
      9352      9351      9353      9352      9351      9354      9353      9351      9354
      9356      9355      9357      9356      9355      9358      9356      9355      9359
      9357      9355      9358      9357      9355      9359      9358      9355      9359
      9355      9359      9360      9355      9359      9361      9355      9359      9362
      9360      9359      9361      9360      9359      9362      9361      9359      9362
      9359      9362      9363      9359      9362      9364      9359      9362      9365
      9363      9362      9364      9363      9362      9365      9364      9362      9365
      9362      9365      9366      9362      9365      9367      9362      9365      9368
      9366      9365      9367      9366      9365      9368      9367      9365      9368
      9365      9368      9369      9365      9368      9370      9365      9368      9371
      9369      9368      9370      9369      9368      9371      9370      9368      9371
      9368      9371      9372      9368      9371      9373      9368      9371      9374
      9372      9371      9373      9372      9371      9374      9373      9371      9374
      9371      9374      9375      9371      9374      9376      9371      9374      9377
      9375      9374      9376      9375      9374      9377      9376      9374      9377
      9374      9377      9378      9374      9377      9379      9374      9377      9380
      9378      9377      9379      9378      9377      9380      9379      9377      9380
      9377      9380      9381      9377      9380      9382      9377      9380      9383
      9381      9380      9382      9381      9380      9383      9382      9380      9383
      9380      9383      9384      9380      9383      9385      9380      9383      9386
      9384      9383      9385      9384      9383      9386      9385      9383      9386
      9383      9386      9387      9383      9386      9388      9383      9386      9389
      9387      9386      9388      9387      9386      9389      9388      9386      9389
      9386      9389      9390      9386      9389      9391      9386      9389      9392
      9390      9389      9391      9390      9389      9392      9391      9389      9392
      9389      9392      9393      9389      9392      9394      9389      9392      9395
      9393      9392      9394      9393      9392      9395      9394      9392      9395
      9392      9395      9396      9392      9395      9397      9392      9395      9398
      9396      9395      9397      9396      9395      9398      9397      9395      9398
      9401      9398      9395      9401      9398      9399      9401      9398      9400
      9395      9398      9399      9395      9398      9400      9399      9398      9400
      9398      9401      9402      9398      9401      9403      9402      9401      9403
      9401      9403      9404      9403      9404      9405      9403      9404      9406
      9403      9404      9407      9405      9404      9406      9405      9404      9407
      9406      9404      9407      9404      9407      9408      9404      9407      9409
      9404      9407      9436      9408      9407      9409      9408      9407      9436
      9409      9407      9436      9407      9409      9410      9407      9409      9411
      9407      9409      9412      9410      9409      9411      9410      9409      9412
      9411      9409      9412      9409      9412      9413      9412      9413      9414
      9412      9413      9434      9412      9413      9435      9414      9413      9434
      9414      9413      9435      9434      9413      9435      9413      9414      9415
      9414      9415      9416      9414      9415      9417      9414      9415      9418
      9416      9415      9417      9416      9415      9418      9417      9415      9418
      9415      9418      9419      9415      9418      9420      9415      9418      9421
      9419      9418      9420      9419      9418      9421      9420      9418      9421
      9418      9421      9422      9418      9421      9426      9418      9421      9430
      9422      9421      9426      9422      9421      9430      9426      9421      9430
      9421      9422      9423      9421      9422      9424      9421      9422      9425
      9423      9422      9424      9423      9422      9425      9424      9422      9425
      9421      9426      9427      9421      9426      9428      9421      9426      9429
      9427      9426      9428      9427      9426      9429      9428      9426      9429
      9421      9430      9431      9421      9430      9432      9421      9430      9433
      9431      9430      9432      9431      9430      9433      9432      9430      9433
      9407      9436      9437      9439      9437      9436      9439      9437      9438
      9436      9437      9438      9437      9439      9440      9437      9439      9441
      9437      9439      9442      9440      9439      9441      9440      9439      9442
      9441      9439      9442      9439      9442      9443      9439      9442      9444
      9439      9442      9445      9443      9442      9444      9443      9442      9445
      9444      9442      9445      9442      9445      9446      9442      9445      9447
      9442      9445      9448      9446      9445      9447      9446      9445      9448
      9447      9445      9448      9445      9448      9449      9445      9448      9450
      9445      9448      9451      9449      9448      9450      9449      9448      9451
      9450      9448      9451      9448      9451      9452      9448      9451      9453
      9448      9451      9454      9452      9451      9453      9452      9451      9454
      9453      9451      9454      9451      9454      9455      9451      9454      9456
      9451      9454      9457      9455      9454      9456      9455      9454      9457
      9456      9454      9457      9454      9457      9458      9454      9457      9459
      9454      9457      9460      9458      9457      9459      9458      9457      9460
      9459      9457      9460      9457      9460      9461      9457      9460      9462
      9461      9460      9462      9460      9462      9463      9460      9462      9464
      9463      9462      9464      9462      9464      9465      9462      9464      9466
      9462      9464      9467      9465      9464      9466      9465      9464      9467
      9466      9464      9467      9464      9467      9468      9464      9467      9469
      9464      9467      9470      9468      9467      9469      9468      9467      9470
      9469      9467      9470      9467      9470      9471      9467      9470      9472
      9467      9470      9473      9471      9470      9472      9471      9470      9473
      9472      9470      9473      9470      9473      9474      9470      9473      9475
      9470      9473      9476      9474      9473      9475      9474      9473      9476
      9475      9473      9476      9473      9476      9477      9473      9476      9478
      9473      9476      9479      9477      9476      9478      9477      9476      9479
      9478      9476      9479      9476      9479      9480      9476      9479      9481
      9476      9479      9482      9480      9479      9481      9480      9479      9482
      9481      9479      9482      9479      9482      9483      9479      9482      9484
      9479      9482      9485      9483      9482      9484      9483      9482      9485
      9484      9482      9485      9482      9485      9486      9482      9485      9487
      9482      9485      9488      9486      9485      9487      9486      9485      9488
      9487      9485      9488      9490      9489      9491      9490      9489      9492
      9490      9489      9493      9491      9489      9492      9491      9489      9493
      9492      9489      9493      9489      9493      9494      9489      9493      9495
      9489      9493      9496      9494      9493      9495      9494      9493      9496
      9495      9493      9496      9493      9496      9497      9493      9496      9498
      9493      9496      9499      9497      9496      9498      9497      9496      9499
      9498      9496      9499      9496      9499      9500      9496      9499      9501
      9496      9499      9502      9500      9499      9501      9500      9499      9502
      9501      9499      9502      9499      9502      9503      9499      9502      9504
      9499      9502      9505      9503      9502      9504      9503      9502      9505
      9504      9502      9505      9502      9505      9506      9502      9505      9507
      9502      9505      9508      9506      9505      9507      9506      9505      9508
      9507      9505      9508      9505      9508      9509      9505      9508      9510
      9505      9508      9511      9509      9508      9510      9509      9508      9511
      9510      9508      9511      9508      9511      9512      9508      9511      9513
      9508      9511      9514      9512      9511      9513      9512      9511      9514
      9513      9511      9514      9511      9514      9515      9511      9514      9516
      9511      9514      9517      9515      9514      9516      9515      9514      9517
      9516      9514      9517      9514      9517      9518      9514      9517      9519
      9514      9517      9520      9518      9517      9519      9518      9517      9520
      9519      9517      9520      9517      9520      9521      9517      9520      9522
      9517      9520      9523      9521      9520      9522      9521      9520      9523
      9522      9520      9523      9520      9523      9524      9520      9523      9525
      9520      9523      9526      9524      9523      9525      9524      9523      9526
      9525      9523      9526      9523      9526      9527      9523      9526      9528
      9523      9526      9529      9527      9526      9528      9527      9526      9529
      9528      9526      9529      9526      9529      9530      9526      9529      9531
      9526      9529      9532      9530      9529      9531      9530      9529      9532
      9531      9529      9532      9535      9532      9529      9535      9532      9533
      9535      9532      9534      9529      9532      9533      9529      9532      9534
      9533      9532      9534      9532      9535      9536      9532      9535      9537
      9536      9535      9537      9535      9537      9538      9537      9538      9539
      9537      9538      9540      9537      9538      9541      9539      9538      9540
      9539      9538      9541      9540      9538      9541      9538      9541      9542
      9538      9541      9543      9538      9541      9570      9542      9541      9543
      9542      9541      9570      9543      9541      9570      9541      9543      9544
      9541      9543      9545      9541      9543      9546      9544      9543      9545
      9544      9543      9546      9545      9543      9546      9543      9546      9547
      9546      9547      9548      9546      9547      9568      9546      9547      9569
      9548      9547      9568      9548      9547      9569      9568      9547      9569
      9547      9548      9549      9548      9549      9550      9548      9549      9551
      9548      9549      9552      9550      9549      9551      9550      9549      9552
      9551      9549      9552      9549      9552      9553      9549      9552      9554
      9549      9552      9555      9553      9552      9554      9553      9552      9555
      9554      9552      9555      9552      9555      9556      9552      9555      9560
      9552      9555      9564      9556      9555      9560      9556      9555      9564
      9560      9555      9564      9555      9556      9557      9555      9556      9558
      9555      9556      9559      9557      9556      9558      9557      9556      9559
      9558      9556      9559      9555      9560      9561      9555      9560      9562
      9555      9560      9563      9561      9560      9562      9561      9560      9563
      9562      9560      9563      9555      9564      9565      9555      9564      9566
      9555      9564      9567      9565      9564      9566      9565      9564      9567
      9566      9564      9567      9541      9570      9571      9573      9571      9570
      9573      9571      9572      9570      9571      9572      9571      9573      9574
      9571      9573      9575      9571      9573      9576      9574      9573      9575
      9574      9573      9576      9575      9573      9576      9573      9576      9577
      9573      9576      9578      9573      9576      9579      9577      9576      9578
      9577      9576      9579      9578      9576      9579      9576      9579      9580
      9576      9579      9581      9576      9579      9582      9580      9579      9581
      9580      9579      9582      9581      9579      9582      9579      9582      9583
      9579      9582      9584      9579      9582      9585      9583      9582      9584
      9583      9582      9585      9584      9582      9585      9582      9585      9586
      9582      9585      9587      9582      9585      9588      9586      9585      9587
      9586      9585      9588      9587      9585      9588      9585      9588      9589
      9585      9588      9590      9585      9588      9591      9589      9588      9590
      9589      9588      9591      9590      9588      9591      9588      9591      9592
      9588      9591      9593      9588      9591      9594      9592      9591      9593
      9592      9591      9594      9593      9591      9594      9591      9594      9595
      9591      9594      9596      9595      9594      9596      9594      9596      9597
      9594      9596      9598      9597      9596      9598      9596      9598      9599
      9596      9598      9600      9596      9598      9601      9599      9598      9600
      9599      9598      9601      9600      9598      9601      9598      9601      9602
      9598      9601      9603      9598      9601      9604      9602      9601      9603
      9602      9601      9604      9603      9601      9604      9601      9604      9605
      9601      9604      9606      9601      9604      9607      9605      9604      9606
      9605      9604      9607      9606      9604      9607      9604      9607      9608
      9604      9607      9609      9604      9607      9610      9608      9607      9609
      9608      9607      9610      9609      9607      9610      9607      9610      9611
      9607      9610      9612      9607      9610      9613      9611      9610      9612
      9611      9610      9613      9612      9610      9613      9610      9613      9614
      9610      9613      9615      9610      9613      9616      9614      9613      9615
      9614      9613      9616      9615      9613      9616      9613      9616      9617
      9613      9616      9618      9613      9616      9619      9617      9616      9618
      9617      9616      9619      9618      9616      9619      9616      9619      9620
      9616      9619      9621      9616      9619      9622      9620      9619      9621
      9620      9619      9622      9621      9619      9622      9624      9623      9625
      9624      9623      9626      9624      9623      9627      9625      9623      9626
      9625      9623      9627      9626      9623      9627      9623      9627      9628
      9623      9627      9629      9623      9627      9630      9628      9627      9629
      9628      9627      9630      9629      9627      9630      9627      9630      9631
      9627      9630      9632      9627      9630      9633      9631      9630      9632
      9631      9630      9633      9632      9630      9633      9630      9633      9634
      9630      9633      9635      9630      9633      9636      9634      9633      9635
      9634      9633      9636      9635      9633      9636      9633      9636      9637
      9633      9636      9638      9633      9636      9639      9637      9636      9638
      9637      9636      9639      9638      9636      9639      9636      9639      9640
      9636      9639      9641      9636      9639      9642      9640      9639      9641
      9640      9639      9642      9641      9639      9642      9639      9642      9643
      9639      9642      9644      9639      9642      9645      9643      9642      9644
      9643      9642      9645      9644      9642      9645      9642      9645      9646
      9642      9645      9647      9642      9645      9648      9646      9645      9647
      9646      9645      9648      9647      9645      9648      9645      9648      9649
      9645      9648      9650      9645      9648      9651      9649      9648      9650
      9649      9648      9651      9650      9648      9651      9648      9651      9652
      9648      9651      9653      9648      9651      9654      9652      9651      9653
      9652      9651      9654      9653      9651      9654      9651      9654      9655
      9651      9654      9656      9651      9654      9657      9655      9654      9656
      9655      9654      9657      9656      9654      9657      9654      9657      9658
      9654      9657      9659      9654      9657      9660      9658      9657      9659
      9658      9657      9660      9659      9657      9660      9657      9660      9661
      9657      9660      9662      9657      9660      9663      9661      9660      9662
      9661      9660      9663      9662      9660      9663      9660      9663      9664
      9660      9663      9665      9660      9663      9666      9664      9663      9665
      9664      9663      9666      9665      9663      9666      9669      9666      9663
      9669      9666      9667      9669      9666      9668      9663      9666      9667
      9663      9666      9668      9667      9666      9668      9666      9669      9670
      9666      9669      9671      9670      9669      9671      9669      9671      9672
      9671      9672      9673      9671      9672      9674      9671      9672      9675
      9673      9672      9674      9673      9672      9675      9674      9672      9675
      9672      9675      9676      9672      9675      9677      9672      9675      9704
      9676      9675      9677      9676      9675      9704      9677      9675      9704
      9675      9677      9678      9675      9677      9679      9675      9677      9680
      9678      9677      9679      9678      9677      9680      9679      9677      9680
      9677      9680      9681      9680      9681      9682      9680      9681      9702
      9680      9681      9703      9682      9681      9702      9682      9681      9703
      9702      9681      9703      9681      9682      9683      9682      9683      9684
      9682      9683      9685      9682      9683      9686      9684      9683      9685
      9684      9683      9686      9685      9683      9686      9683      9686      9687
      9683      9686      9688      9683      9686      9689      9687      9686      9688
      9687      9686      9689      9688      9686      9689      9686      9689      9690
      9686      9689      9694      9686      9689      9698      9690      9689      9694
      9690      9689      9698      9694      9689      9698      9689      9690      9691
      9689      9690      9692      9689      9690      9693      9691      9690      9692
      9691      9690      9693      9692      9690      9693      9689      9694      9695
      9689      9694      9696      9689      9694      9697      9695      9694      9696
      9695      9694      9697      9696      9694      9697      9689      9698      9699
      9689      9698      9700      9689      9698      9701      9699      9698      9700
      9699      9698      9701      9700      9698      9701      9675      9704      9705
      9707      9705      9704      9707      9705      9706      9704      9705      9706
      9705      9707      9708      9705      9707      9709      9705      9707      9710
      9708      9707      9709      9708      9707      9710      9709      9707      9710
      9707      9710      9711      9707      9710      9712      9707      9710      9713
      9711      9710      9712      9711      9710      9713      9712      9710      9713
      9710      9713      9714      9710      9713      9715      9710      9713      9716
      9714      9713      9715      9714      9713      9716      9715      9713      9716
      9713      9716      9717      9713      9716      9718      9713      9716      9719
      9717      9716      9718      9717      9716      9719      9718      9716      9719
      9716      9719      9720      9716      9719      9721      9716      9719      9722
      9720      9719      9721      9720      9719      9722      9721      9719      9722
      9719      9722      9723      9719      9722      9724      9719      9722      9725
      9723      9722      9724      9723      9722      9725      9724      9722      9725
      9722      9725      9726      9722      9725      9727      9722      9725      9728
      9726      9725      9727      9726      9725      9728      9727      9725      9728
      9725      9728      9729      9725      9728      9730      9729      9728      9730
      9728      9730      9731      9728      9730      9732      9731      9730      9732
      9730      9732      9733      9730      9732      9734      9730      9732      9735
      9733      9732      9734      9733      9732      9735      9734      9732      9735
      9732      9735      9736      9732      9735      9737      9732      9735      9738
      9736      9735      9737      9736      9735      9738      9737      9735      9738
      9735      9738      9739      9735      9738      9740      9735      9738      9741
      9739      9738      9740      9739      9738      9741      9740      9738      9741
      9738      9741      9742      9738      9741      9743      9738      9741      9744
      9742      9741      9743      9742      9741      9744      9743      9741      9744
      9741      9744      9745      9741      9744      9746      9741      9744      9747
      9745      9744      9746      9745      9744      9747      9746      9744      9747
      9744      9747      9748      9744      9747      9749      9744      9747      9750
      9748      9747      9749      9748      9747      9750      9749      9747      9750
      9747      9750      9751      9747      9750      9752      9747      9750      9753
      9751      9750      9752      9751      9750      9753      9752      9750      9753
      9750      9753      9754      9750      9753      9755      9750      9753      9756
      9754      9753      9755      9754      9753      9756      9755      9753      9756
      9758      9757      9759      9758      9757      9760      9758      9757      9761
      9759      9757      9760      9759      9757      9761      9760      9757      9761
      9757      9761      9762      9757      9761      9763      9757      9761      9764
      9762      9761      9763      9762      9761      9764      9763      9761      9764
      9761      9764      9765      9761      9764      9766      9761      9764      9767
      9765      9764      9766      9765      9764      9767      9766      9764      9767
      9764      9767      9768      9764      9767      9769      9764      9767      9770
      9768      9767      9769      9768      9767      9770      9769      9767      9770
      9767      9770      9771      9767      9770      9772      9767      9770      9773
      9771      9770      9772      9771      9770      9773      9772      9770      9773
      9770      9773      9774      9770      9773      9775      9770      9773      9776
      9774      9773      9775      9774      9773      9776      9775      9773      9776
      9773      9776      9777      9773      9776      9778      9773      9776      9779
      9777      9776      9778      9777      9776      9779      9778      9776      9779
      9776      9779      9780      9776      9779      9781      9776      9779      9782
      9780      9779      9781      9780      9779      9782      9781      9779      9782
      9779      9782      9783      9779      9782      9784      9779      9782      9785
      9783      9782      9784      9783      9782      9785      9784      9782      9785
      9782      9785      9786      9782      9785      9787      9782      9785      9788
      9786      9785      9787      9786      9785      9788      9787      9785      9788
      9785      9788      9789      9785      9788      9790      9785      9788      9791
      9789      9788      9790      9789      9788      9791      9790      9788      9791
      9788      9791      9792      9788      9791      9793      9788      9791      9794
      9792      9791      9793      9792      9791      9794      9793      9791      9794
      9791      9794      9795      9791      9794      9796      9791      9794      9797
      9795      9794      9796      9795      9794      9797      9796      9794      9797
      9794      9797      9798      9794      9797      9799      9794      9797      9800
      9798      9797      9799      9798      9797      9800      9799      9797      9800
      9803      9800      9797      9803      9800      9801      9803      9800      9802
      9797      9800      9801      9797      9800      9802      9801      9800      9802
      9800      9803      9804      9800      9803      9805      9804      9803      9805
      9803      9805      9806      9805      9806      9807      9805      9806      9808
      9805      9806      9809      9807      9806      9808      9807      9806      9809
      9808      9806      9809      9806      9809      9810      9806      9809      9811
      9806      9809      9838      9810      9809      9811      9810      9809      9838
      9811      9809      9838      9809      9811      9812      9809      9811      9813
      9809      9811      9814      9812      9811      9813      9812      9811      9814
      9813      9811      9814      9811      9814      9815      9814      9815      9816
      9814      9815      9836      9814      9815      9837      9816      9815      9836
      9816      9815      9837      9836      9815      9837      9815      9816      9817
      9816      9817      9818      9816      9817      9819      9816      9817      9820
      9818      9817      9819      9818      9817      9820      9819      9817      9820
      9817      9820      9821      9817      9820      9822      9817      9820      9823
      9821      9820      9822      9821      9820      9823      9822      9820      9823
      9820      9823      9824      9820      9823      9828      9820      9823      9832
      9824      9823      9828      9824      9823      9832      9828      9823      9832
      9823      9824      9825      9823      9824      9826      9823      9824      9827
      9825      9824      9826      9825      9824      9827      9826      9824      9827
      9823      9828      9829      9823      9828      9830      9823      9828      9831
      9829      9828      9830      9829      9828      9831      9830      9828      9831
      9823      9832      9833      9823      9832      9834      9823      9832      9835
      9833      9832      9834      9833      9832      9835      9834      9832      9835
      9809      9838      9839      9841      9839      9838      9841      9839      9840
      9838      9839      9840      9839      9841      9842      9839      9841      9843
      9839      9841      9844      9842      9841      9843      9842      9841      9844
      9843      9841      9844      9841      9844      9845      9841      9844      9846
      9841      9844      9847      9845      9844      9846      9845      9844      9847
      9846      9844      9847      9844      9847      9848      9844      9847      9849
      9844      9847      9850      9848      9847      9849      9848      9847      9850
      9849      9847      9850      9847      9850      9851      9847      9850      9852
      9847      9850      9853      9851      9850      9852      9851      9850      9853
      9852      9850      9853      9850      9853      9854      9850      9853      9855
      9850      9853      9856      9854      9853      9855      9854      9853      9856
      9855      9853      9856      9853      9856      9857      9853      9856      9858
      9853      9856      9859      9857      9856      9858      9857      9856      9859
      9858      9856      9859      9856      9859      9860      9856      9859      9861
      9856      9859      9862      9860      9859      9861      9860      9859      9862
      9861      9859      9862      9859      9862      9863      9859      9862      9864
      9863      9862      9864      9862      9864      9865      9862      9864      9866
      9865      9864      9866      9864      9866      9867      9864      9866      9868
      9864      9866      9869      9867      9866      9868      9867      9866      9869
      9868      9866      9869      9866      9869      9870      9866      9869      9871
      9866      9869      9872      9870      9869      9871      9870      9869      9872
      9871      9869      9872      9869      9872      9873      9869      9872      9874
      9869      9872      9875      9873      9872      9874      9873      9872      9875
      9874      9872      9875      9872      9875      9876      9872      9875      9877
      9872      9875      9878      9876      9875      9877      9876      9875      9878
      9877      9875      9878      9875      9878      9879      9875      9878      9880
      9875      9878      9881      9879      9878      9880      9879      9878      9881
      9880      9878      9881      9878      9881      9882      9878      9881      9883
      9878      9881      9884      9882      9881      9883      9882      9881      9884
      9883      9881      9884      9881      9884      9885      9881      9884      9886
      9881      9884      9887      9885      9884      9886      9885      9884      9887
      9886      9884      9887      9884      9887      9888      9884      9887      9889
      9884      9887      9890      9888      9887      9889      9888      9887      9890
      9889      9887      9890      9892      9891      9893      9892      9891      9894
      9892      9891      9895      9893      9891      9894      9893      9891      9895
      9894      9891      9895      9891      9895      9896      9891      9895      9897
      9891      9895      9898      9896      9895      9897      9896      9895      9898
      9897      9895      9898      9895      9898      9899      9895      9898      9900
      9895      9898      9901      9899      9898      9900      9899      9898      9901
      9900      9898      9901      9898      9901      9902      9898      9901      9903
      9898      9901      9904      9902      9901      9903      9902      9901      9904
      9903      9901      9904      9901      9904      9905      9901      9904      9906
      9901      9904      9907      9905      9904      9906      9905      9904      9907
      9906      9904      9907      9904      9907      9908      9904      9907      9909
      9904      9907      9910      9908      9907      9909      9908      9907      9910
      9909      9907      9910      9907      9910      9911      9907      9910      9912
      9907      9910      9913      9911      9910      9912      9911      9910      9913
      9912      9910      9913      9910      9913      9914      9910      9913      9915
      9910      9913      9916      9914      9913      9915      9914      9913      9916
      9915      9913      9916      9913      9916      9917      9913      9916      9918
      9913      9916      9919      9917      9916      9918      9917      9916      9919
      9918      9916      9919      9916      9919      9920      9916      9919      9921
      9916      9919      9922      9920      9919      9921      9920      9919      9922
      9921      9919      9922      9919      9922      9923      9919      9922      9924
      9919      9922      9925      9923      9922      9924      9923      9922      9925
      9924      9922      9925      9922      9925      9926      9922      9925      9927
      9922      9925      9928      9926      9925      9927      9926      9925      9928
      9927      9925      9928      9925      9928      9929      9925      9928      9930
      9925      9928      9931      9929      9928      9930      9929      9928      9931
      9930      9928      9931      9928      9931      9932      9928      9931      9933
      9928      9931      9934      9932      9931      9933      9932      9931      9934
      9933      9931      9934      9937      9934      9931      9937      9934      9935
      9937      9934      9936      9931      9934      9935      9931      9934      9936
      9935      9934      9936      9934      9937      9938      9934      9937      9939
      9938      9937      9939      9937      9939      9940      9939      9940      9941
      9939      9940      9942      9939      9940      9943      9941      9940      9942
      9941      9940      9943      9942      9940      9943      9940      9943      9944
      9940      9943      9945      9940      9943      9972      9944      9943      9945
      9944      9943      9972      9945      9943      9972      9943      9945      9946
      9943      9945      9947      9943      9945      9948      9946      9945      9947
      9946      9945      9948      9947      9945      9948      9945      9948      9949
      9948      9949      9950      9948      9949      9970      9948      9949      9971
      9950      9949      9970      9950      9949      9971      9970      9949      9971
      9949      9950      9951      9950      9951      9952      9950      9951      9953
      9950      9951      9954      9952      9951      9953      9952      9951      9954
      9953      9951      9954      9951      9954      9955      9951      9954      9956
      9951      9954      9957      9955      9954      9956      9955      9954      9957
      9956      9954      9957      9954      9957      9958      9954      9957      9962
      9954      9957      9966      9958      9957      9962      9958      9957      9966
      9962      9957      9966      9957      9958      9959      9957      9958      9960
      9957      9958      9961      9959      9958      9960      9959      9958      9961
      9960      9958      9961      9957      9962      9963      9957      9962      9964
      9957      9962      9965      9963      9962      9964      9963      9962      9965
      9964      9962      9965      9957      9966      9967      9957      9966      9968
      9957      9966      9969      9967      9966      9968      9967      9966      9969
      9968      9966      9969      9943      9972      9973      9975      9973      9972
      9975      9973      9974      9972      9973      9974      9973      9975      9976
      9973      9975      9977      9973      9975      9978      9976      9975      9977
      9976      9975      9978      9977      9975      9978      9975      9978      9979
      9975      9978      9980      9975      9978      9981      9979      9978      9980
      9979      9978      9981      9980      9978      9981      9978      9981      9982
      9978      9981      9983      9978      9981      9984      9982      9981      9983
      9982      9981      9984      9983      9981      9984      9981      9984      9985
      9981      9984      9986      9981      9984      9987      9985      9984      9986
      9985      9984      9987      9986      9984      9987      9984      9987      9988
      9984      9987      9989      9984      9987      9990      9988      9987      9989
      9988      9987      9990      9989      9987      9990      9987      9990      9991
      9987      9990      9992      9987      9990      9993      9991      9990      9992
      9991      9990      9993      9992      9990      9993      9990      9993      9994
      9990      9993      9995      9990      9993      9996      9994      9993      9995
      9994      9993      9996      9995      9993      9996      9993      9996      9997
      9993      9996      9998      9997      9996      9998      9996      9998      9999
      9996      9998     10000      9999      9998     10000      9998     10000     10001
      9998     10000     10002      9998     10000     10003     10001     10000     10002
     10001     10000     10003     10002     10000     10003     10000     10003     10004
     10000     10003     10005     10000     10003     10006     10004     10003     10005
     10004     10003     10006     10005     10003     10006     10003     10006     10007
     10003     10006     10008     10003     10006     10009     10007     10006     10008
     10007     10006     10009     10008     10006     10009     10006     10009     10010
     10006     10009     10011     10006     10009     10012     10010     10009     10011
     10010     10009     10012     10011     10009     10012     10009     10012     10013
     10009     10012     10014     10009     10012     10015     10013     10012     10014
     10013     10012     10015     10014     10012     10015     10012     10015     10016
     10012     10015     10017     10012     10015     10018     10016     10015     10017
     10016     10015     10018     10017     10015     10018     10015     10018     10019
     10015     10018     10020     10015     10018     10021     10019     10018     10020
     10019     10018     10021     10020     10018     10021     10018     10021     10022
     10018     10021     10023     10018     10021     10024     10022     10021     10023
     10022     10021     10024     10023     10021     10024     10026     10025     10027
     10026     10025     10028     10026     10025     10029     10027     10025     10028
     10027     10025     10029     10028     10025     10029     10025     10029     10030
     10025     10029     10031     10025     10029     10032     10030     10029     10031
     10030     10029     10032     10031     10029     10032     10029     10032     10033
     10029     10032     10034     10029     10032     10035     10033     10032     10034
     10033     10032     10035     10034     10032     10035     10032     10035     10036
     10032     10035     10037     10032     10035     10038     10036     10035     10037
     10036     10035     10038     10037     10035     10038     10035     10038     10039
     10035     10038     10040     10035     10038     10041     10039     10038     10040
     10039     10038     10041     10040     10038     10041     10038     10041     10042
     10038     10041     10043     10038     10041     10044     10042     10041     10043
     10042     10041     10044     10043     10041     10044     10041     10044     10045
     10041     10044     10046     10041     10044     10047     10045     10044     10046
     10045     10044     10047     10046     10044     10047     10044     10047     10048
     10044     10047     10049     10044     10047     10050     10048     10047     10049
     10048     10047     10050     10049     10047     10050     10047     10050     10051
     10047     10050     10052     10047     10050     10053     10051     10050     10052
     10051     10050     10053     10052     10050     10053     10050     10053     10054
     10050     10053     10055     10050     10053     10056     10054     10053     10055
     10054     10053     10056     10055     10053     10056     10053     10056     10057
     10053     10056     10058     10053     10056     10059     10057     10056     10058
     10057     10056     10059     10058     10056     10059     10056     10059     10060
     10056     10059     10061     10056     10059     10062     10060     10059     10061
     10060     10059     10062     10061     10059     10062     10059     10062     10063
     10059     10062     10064     10059     10062     10065     10063     10062     10064
     10063     10062     10065     10064     10062     10065     10062     10065     10066
     10062     10065     10067     10062     10065     10068     10066     10065     10067
     10066     10065     10068     10067     10065     10068     10071     10068     10065
     10071     10068     10069     10071     10068     10070     10065     10068     10069
     10065     10068     10070     10069     10068     10070     10068     10071     10072
     10068     10071     10073     10072     10071     10073     10071     10073     10074
     10073     10074     10075     10073     10074     10076     10073     10074     10077
     10075     10074     10076     10075     10074     10077     10076     10074     10077
     10074     10077     10078     10074     10077     10079     10074     10077     10106
     10078     10077     10079     10078     10077     10106     10079     10077     10106
     10077     10079     10080     10077     10079     10081     10077     10079     10082
     10080     10079     10081     10080     10079     10082     10081     10079     10082
     10079     10082     10083     10082     10083     10084     10082     10083     10104
     10082     10083     10105     10084     10083     10104     10084     10083     10105
     10104     10083     10105     10083     10084     10085     10084     10085     10086
     10084     10085     10087     10084     10085     10088     10086     10085     10087
     10086     10085     10088     10087     10085     10088     10085     10088     10089
     10085     10088     10090     10085     10088     10091     10089     10088     10090
     10089     10088     10091     10090     10088     10091     10088     10091     10092
     10088     10091     10096     10088     10091     10100     10092     10091     10096
     10092     10091     10100     10096     10091     10100     10091     10092     10093
     10091     10092     10094     10091     10092     10095     10093     10092     10094
     10093     10092     10095     10094     10092     10095     10091     10096     10097
     10091     10096     10098     10091     10096     10099     10097     10096     10098
     10097     10096     10099     10098     10096     10099     10091     10100     10101
     10091     10100     10102     10091     10100     10103     10101     10100     10102
     10101     10100     10103     10102     10100     10103     10077     10106     10107
     10109     10107     10106     10109     10107     10108     10106     10107     10108
     10107     10109     10110     10107     10109     10111     10107     10109     10112
     10110     10109     10111     10110     10109     10112     10111     10109     10112
     10109     10112     10113     10109     10112     10114     10109     10112     10115
     10113     10112     10114     10113     10112     10115     10114     10112     10115
     10112     10115     10116     10112     10115     10117     10112     10115     10118
     10116     10115     10117     10116     10115     10118     10117     10115     10118
     10115     10118     10119     10115     10118     10120     10115     10118     10121
     10119     10118     10120     10119     10118     10121     10120     10118     10121
     10118     10121     10122     10118     10121     10123     10118     10121     10124
     10122     10121     10123     10122     10121     10124     10123     10121     10124
     10121     10124     10125     10121     10124     10126     10121     10124     10127
     10125     10124     10126     10125     10124     10127     10126     10124     10127
     10124     10127     10128     10124     10127     10129     10124     10127     10130
     10128     10127     10129     10128     10127     10130     10129     10127     10130
     10127     10130     10131     10127     10130     10132     10131     10130     10132
     10130     10132     10133     10130     10132     10134     10133     10132     10134
     10132     10134     10135     10132     10134     10136     10132     10134     10137
     10135     10134     10136     10135     10134     10137     10136     10134     10137
     10134     10137     10138     10134     10137     10139     10134     10137     10140
     10138     10137     10139     10138     10137     10140     10139     10137     10140
     10137     10140     10141     10137     10140     10142     10137     10140     10143
     10141     10140     10142     10141     10140     10143     10142     10140     10143
     10140     10143     10144     10140     10143     10145     10140     10143     10146
     10144     10143     10145     10144     10143     10146     10145     10143     10146
     10143     10146     10147     10143     10146     10148     10143     10146     10149
     10147     10146     10148     10147     10146     10149     10148     10146     10149
     10146     10149     10150     10146     10149     10151     10146     10149     10152
     10150     10149     10151     10150     10149     10152     10151     10149     10152
     10149     10152     10153     10149     10152     10154     10149     10152     10155
     10153     10152     10154     10153     10152     10155     10154     10152     10155
     10152     10155     10156     10152     10155     10157     10152     10155     10158
     10156     10155     10157     10156     10155     10158     10157     10155     10158
     10160     10159     10161     10160     10159     10162     10160     10159     10163
     10161     10159     10162     10161     10159     10163     10162     10159     10163
     10159     10163     10164     10159     10163     10165     10159     10163     10166
     10164     10163     10165     10164     10163     10166     10165     10163     10166
     10163     10166     10167     10163     10166     10168     10163     10166     10169
     10167     10166     10168     10167     10166     10169     10168     10166     10169
     10166     10169     10170     10166     10169     10171     10166     10169     10172
     10170     10169     10171     10170     10169     10172     10171     10169     10172
     10169     10172     10173     10169     10172     10174     10169     10172     10175
     10173     10172     10174     10173     10172     10175     10174     10172     10175
     10172     10175     10176     10172     10175     10177     10172     10175     10178
     10176     10175     10177     10176     10175     10178     10177     10175     10178
     10175     10178     10179     10175     10178     10180     10175     10178     10181
     10179     10178     10180     10179     10178     10181     10180     10178     10181
     10178     10181     10182     10178     10181     10183     10178     10181     10184
     10182     10181     10183     10182     10181     10184     10183     10181     10184
     10181     10184     10185     10181     10184     10186     10181     10184     10187
     10185     10184     10186     10185     10184     10187     10186     10184     10187
     10184     10187     10188     10184     10187     10189     10184     10187     10190
     10188     10187     10189     10188     10187     10190     10189     10187     10190
     10187     10190     10191     10187     10190     10192     10187     10190     10193
     10191     10190     10192     10191     10190     10193     10192     10190     10193
     10190     10193     10194     10190     10193     10195     10190     10193     10196
     10194     10193     10195     10194     10193     10196     10195     10193     10196
     10193     10196     10197     10193     10196     10198     10193     10196     10199
     10197     10196     10198     10197     10196     10199     10198     10196     10199
     10196     10199     10200     10196     10199     10201     10196     10199     10202
     10200     10199     10201     10200     10199     10202     10201     10199     10202
     10205     10202     10199     10205     10202     10203     10205     10202     10204
     10199     10202     10203     10199     10202     10204     10203     10202     10204
     10202     10205     10206     10202     10205     10207     10206     10205     10207
     10205     10207     10208     10207     10208     10209     10207     10208     10210
     10207     10208     10211     10209     10208     10210     10209     10208     10211
     10210     10208     10211     10208     10211     10212     10208     10211     10213
     10208     10211     10240     10212     10211     10213     10212     10211     10240
     10213     10211     10240     10211     10213     10214     10211     10213     10215
     10211     10213     10216     10214     10213     10215     10214     10213     10216
     10215     10213     10216     10213     10216     10217     10216     10217     10218
     10216     10217     10238     10216     10217     10239     10218     10217     10238
     10218     10217     10239     10238     10217     10239     10217     10218     10219
     10218     10219     10220     10218     10219     10221     10218     10219     10222
     10220     10219     10221     10220     10219     10222     10221     10219     10222
     10219     10222     10223     10219     10222     10224     10219     10222     10225
     10223     10222     10224     10223     10222     10225     10224     10222     10225
     10222     10225     10226     10222     10225     10230     10222     10225     10234
     10226     10225     10230     10226     10225     10234     10230     10225     10234
     10225     10226     10227     10225     10226     10228     10225     10226     10229
     10227     10226     10228     10227     10226     10229     10228     10226     10229
     10225     10230     10231     10225     10230     10232     10225     10230     10233
     10231     10230     10232     10231     10230     10233     10232     10230     10233
     10225     10234     10235     10225     10234     10236     10225     10234     10237
     10235     10234     10236     10235     10234     10237     10236     10234     10237
     10211     10240     10241     10243     10241     10240     10243     10241     10242
     10240     10241     10242     10241     10243     10244     10241     10243     10245
     10241     10243     10246     10244     10243     10245     10244     10243     10246
     10245     10243     10246     10243     10246     10247     10243     10246     10248
     10243     10246     10249     10247     10246     10248     10247     10246     10249
     10248     10246     10249     10246     10249     10250     10246     10249     10251
     10246     10249     10252     10250     10249     10251     10250     10249     10252
     10251     10249     10252     10249     10252     10253     10249     10252     10254
     10249     10252     10255     10253     10252     10254     10253     10252     10255
     10254     10252     10255     10252     10255     10256     10252     10255     10257
     10252     10255     10258     10256     10255     10257     10256     10255     10258
     10257     10255     10258     10255     10258     10259     10255     10258     10260
     10255     10258     10261     10259     10258     10260     10259     10258     10261
     10260     10258     10261     10258     10261     10262     10258     10261     10263
     10258     10261     10264     10262     10261     10263     10262     10261     10264
     10263     10261     10264     10261     10264     10265     10261     10264     10266
     10265     10264     10266     10264     10266     10267     10264     10266     10268
     10267     10266     10268     10266     10268     10269     10266     10268     10270
     10266     10268     10271     10269     10268     10270     10269     10268     10271
     10270     10268     10271     10268     10271     10272     10268     10271     10273
     10268     10271     10274     10272     10271     10273     10272     10271     10274
     10273     10271     10274     10271     10274     10275     10271     10274     10276
     10271     10274     10277     10275     10274     10276     10275     10274     10277
     10276     10274     10277     10274     10277     10278     10274     10277     10279
     10274     10277     10280     10278     10277     10279     10278     10277     10280
     10279     10277     10280     10277     10280     10281     10277     10280     10282
     10277     10280     10283     10281     10280     10282     10281     10280     10283
     10282     10280     10283     10280     10283     10284     10280     10283     10285
     10280     10283     10286     10284     10283     10285     10284     10283     10286
     10285     10283     10286     10283     10286     10287     10283     10286     10288
     10283     10286     10289     10287     10286     10288     10287     10286     10289
     10288     10286     10289     10286     10289     10290     10286     10289     10291
     10286     10289     10292     10290     10289     10291     10290     10289     10292
     10291     10289     10292     10294     10293     10295     10294     10293     10296
     10294     10293     10297     10295     10293     10296     10295     10293     10297
     10296     10293     10297     10293     10297     10298     10293     10297     10299
     10293     10297     10300     10298     10297     10299     10298     10297     10300
     10299     10297     10300     10297     10300     10301     10297     10300     10302
     10297     10300     10303     10301     10300     10302     10301     10300     10303
     10302     10300     10303     10300     10303     10304     10300     10303     10305
     10300     10303     10306     10304     10303     10305     10304     10303     10306
     10305     10303     10306     10303     10306     10307     10303     10306     10308
     10303     10306     10309     10307     10306     10308     10307     10306     10309
     10308     10306     10309     10306     10309     10310     10306     10309     10311
     10306     10309     10312     10310     10309     10311     10310     10309     10312
     10311     10309     10312     10309     10312     10313     10309     10312     10314
     10309     10312     10315     10313     10312     10314     10313     10312     10315
     10314     10312     10315     10312     10315     10316     10312     10315     10317
     10312     10315     10318     10316     10315     10317     10316     10315     10318
     10317     10315     10318     10315     10318     10319     10315     10318     10320
     10315     10318     10321     10319     10318     10320     10319     10318     10321
     10320     10318     10321     10318     10321     10322     10318     10321     10323
     10318     10321     10324     10322     10321     10323     10322     10321     10324
     10323     10321     10324     10321     10324     10325     10321     10324     10326
     10321     10324     10327     10325     10324     10326     10325     10324     10327
     10326     10324     10327     10324     10327     10328     10324     10327     10329
     10324     10327     10330     10328     10327     10329     10328     10327     10330
     10329     10327     10330     10327     10330     10331     10327     10330     10332
     10327     10330     10333     10331     10330     10332     10331     10330     10333
     10332     10330     10333     10330     10333     10334     10330     10333     10335
     10330     10333     10336     10334     10333     10335     10334     10333     10336
     10335     10333     10336     10339     10336     10333     10339     10336     10337
     10339     10336     10338     10333     10336     10337     10333     10336     10338
     10337     10336     10338     10336     10339     10340     10336     10339     10341
     10340     10339     10341     10339     10341     10342     10341     10342     10343
     10341     10342     10344     10341     10342     10345     10343     10342     10344
     10343     10342     10345     10344     10342     10345     10342     10345     10346
     10342     10345     10347     10342     10345     10374     10346     10345     10347
     10346     10345     10374     10347     10345     10374     10345     10347     10348
     10345     10347     10349     10345     10347     10350     10348     10347     10349
     10348     10347     10350     10349     10347     10350     10347     10350     10351
     10350     10351     10352     10350     10351     10372     10350     10351     10373
     10352     10351     10372     10352     10351     10373     10372     10351     10373
     10351     10352     10353     10352     10353     10354     10352     10353     10355
     10352     10353     10356     10354     10353     10355     10354     10353     10356
     10355     10353     10356     10353     10356     10357     10353     10356     10358
     10353     10356     10359     10357     10356     10358     10357     10356     10359
     10358     10356     10359     10356     10359     10360     10356     10359     10364
     10356     10359     10368     10360     10359     10364     10360     10359     10368
     10364     10359     10368     10359     10360     10361     10359     10360     10362
     10359     10360     10363     10361     10360     10362     10361     10360     10363
     10362     10360     10363     10359     10364     10365     10359     10364     10366
     10359     10364     10367     10365     10364     10366     10365     10364     10367
     10366     10364     10367     10359     10368     10369     10359     10368     10370
     10359     10368     10371     10369     10368     10370     10369     10368     10371
     10370     10368     10371     10345     10374     10375     10377     10375     10374
     10377     10375     10376     10374     10375     10376     10375     10377     10378
     10375     10377     10379     10375     10377     10380     10378     10377     10379
     10378     10377     10380     10379     10377     10380     10377     10380     10381
     10377     10380     10382     10377     10380     10383     10381     10380     10382
     10381     10380     10383     10382     10380     10383     10380     10383     10384
     10380     10383     10385     10380     10383     10386     10384     10383     10385
     10384     10383     10386     10385     10383     10386     10383     10386     10387
     10383     10386     10388     10383     10386     10389     10387     10386     10388
     10387     10386     10389     10388     10386     10389     10386     10389     10390
     10386     10389     10391     10386     10389     10392     10390     10389     10391
     10390     10389     10392     10391     10389     10392     10389     10392     10393
     10389     10392     10394     10389     10392     10395     10393     10392     10394
     10393     10392     10395     10394     10392     10395     10392     10395     10396
     10392     10395     10397     10392     10395     10398     10396     10395     10397
     10396     10395     10398     10397     10395     10398     10395     10398     10399
     10395     10398     10400     10399     10398     10400     10398     10400     10401
     10398     10400     10402     10401     10400     10402     10400     10402     10403
     10400     10402     10404     10400     10402     10405     10403     10402     10404
     10403     10402     10405     10404     10402     10405     10402     10405     10406
     10402     10405     10407     10402     10405     10408     10406     10405     10407
     10406     10405     10408     10407     10405     10408     10405     10408     10409
     10405     10408     10410     10405     10408     10411     10409     10408     10410
     10409     10408     10411     10410     10408     10411     10408     10411     10412
     10408     10411     10413     10408     10411     10414     10412     10411     10413
     10412     10411     10414     10413     10411     10414     10411     10414     10415
     10411     10414     10416     10411     10414     10417     10415     10414     10416
     10415     10414     10417     10416     10414     10417     10414     10417     10418
     10414     10417     10419     10414     10417     10420     10418     10417     10419
     10418     10417     10420     10419     10417     10420     10417     10420     10421
     10417     10420     10422     10417     10420     10423     10421     10420     10422
     10421     10420     10423     10422     10420     10423     10420     10423     10424
     10420     10423     10425     10420     10423     10426     10424     10423     10425
     10424     10423     10426     10425     10423     10426     10428     10427     10429
     10428     10427     10430     10428     10427     10431     10429     10427     10430
     10429     10427     10431     10430     10427     10431     10427     10431     10432
     10427     10431     10433     10427     10431     10434     10432     10431     10433
     10432     10431     10434     10433     10431     10434     10431     10434     10435
     10431     10434     10436     10431     10434     10437     10435     10434     10436
     10435     10434     10437     10436     10434     10437     10434     10437     10438
     10434     10437     10439     10434     10437     10440     10438     10437     10439
     10438     10437     10440     10439     10437     10440     10437     10440     10441
     10437     10440     10442     10437     10440     10443     10441     10440     10442
     10441     10440     10443     10442     10440     10443     10440     10443     10444
     10440     10443     10445     10440     10443     10446     10444     10443     10445
     10444     10443     10446     10445     10443     10446     10443     10446     10447
     10443     10446     10448     10443     10446     10449     10447     10446     10448
     10447     10446     10449     10448     10446     10449     10446     10449     10450
     10446     10449     10451     10446     10449     10452     10450     10449     10451
     10450     10449     10452     10451     10449     10452     10449     10452     10453
     10449     10452     10454     10449     10452     10455     10453     10452     10454
     10453     10452     10455     10454     10452     10455     10452     10455     10456
     10452     10455     10457     10452     10455     10458     10456     10455     10457
     10456     10455     10458     10457     10455     10458     10455     10458     10459
     10455     10458     10460     10455     10458     10461     10459     10458     10460
     10459     10458     10461     10460     10458     10461     10458     10461     10462
     10458     10461     10463     10458     10461     10464     10462     10461     10463
     10462     10461     10464     10463     10461     10464     10461     10464     10465
     10461     10464     10466     10461     10464     10467     10465     10464     10466
     10465     10464     10467     10466     10464     10467     10464     10467     10468
     10464     10467     10469     10464     10467     10470     10468     10467     10469
     10468     10467     10470     10469     10467     10470     10473     10470     10467
     10473     10470     10471     10473     10470     10472     10467     10470     10471
     10467     10470     10472     10471     10470     10472     10470     10473     10474
     10470     10473     10475     10474     10473     10475     10473     10475     10476
     10475     10476     10477     10475     10476     10478     10475     10476     10479
     10477     10476     10478     10477     10476     10479     10478     10476     10479
     10476     10479     10480     10476     10479     10481     10476     10479     10508
     10480     10479     10481     10480     10479     10508     10481     10479     10508
     10479     10481     10482     10479     10481     10483     10479     10481     10484
     10482     10481     10483     10482     10481     10484     10483     10481     10484
     10481     10484     10485     10484     10485     10486     10484     10485     10506
     10484     10485     10507     10486     10485     10506     10486     10485     10507
     10506     10485     10507     10485     10486     10487     10486     10487     10488
     10486     10487     10489     10486     10487     10490     10488     10487     10489
     10488     10487     10490     10489     10487     10490     10487     10490     10491
     10487     10490     10492     10487     10490     10493     10491     10490     10492
     10491     10490     10493     10492     10490     10493     10490     10493     10494
     10490     10493     10498     10490     10493     10502     10494     10493     10498
     10494     10493     10502     10498     10493     10502     10493     10494     10495
     10493     10494     10496     10493     10494     10497     10495     10494     10496
     10495     10494     10497     10496     10494     10497     10493     10498     10499
     10493     10498     10500     10493     10498     10501     10499     10498     10500
     10499     10498     10501     10500     10498     10501     10493     10502     10503
     10493     10502     10504     10493     10502     10505     10503     10502     10504
     10503     10502     10505     10504     10502     10505     10479     10508     10509
     10511     10509     10508     10511     10509     10510     10508     10509     10510
     10509     10511     10512     10509     10511     10513     10509     10511     10514
     10512     10511     10513     10512     10511     10514     10513     10511     10514
     10511     10514     10515     10511     10514     10516     10511     10514     10517
     10515     10514     10516     10515     10514     10517     10516     10514     10517
     10514     10517     10518     10514     10517     10519     10514     10517     10520
     10518     10517     10519     10518     10517     10520     10519     10517     10520
     10517     10520     10521     10517     10520     10522     10517     10520     10523
     10521     10520     10522     10521     10520     10523     10522     10520     10523
     10520     10523     10524     10520     10523     10525     10520     10523     10526
     10524     10523     10525     10524     10523     10526     10525     10523     10526
     10523     10526     10527     10523     10526     10528     10523     10526     10529
     10527     10526     10528     10527     10526     10529     10528     10526     10529
     10526     10529     10530     10526     10529     10531     10526     10529     10532
     10530     10529     10531     10530     10529     10532     10531     10529     10532
     10529     10532     10533     10529     10532     10534     10533     10532     10534
     10532     10534     10535     10532     10534     10536     10535     10534     10536
     10534     10536     10537     10534     10536     10538     10534     10536     10539
     10537     10536     10538     10537     10536     10539     10538     10536     10539
     10536     10539     10540     10536     10539     10541     10536     10539     10542
     10540     10539     10541     10540     10539     10542     10541     10539     10542
     10539     10542     10543     10539     10542     10544     10539     10542     10545
     10543     10542     10544     10543     10542     10545     10544     10542     10545
     10542     10545     10546     10542     10545     10547     10542     10545     10548
     10546     10545     10547     10546     10545     10548     10547     10545     10548
     10545     10548     10549     10545     10548     10550     10545     10548     10551
     10549     10548     10550     10549     10548     10551     10550     10548     10551
     10548     10551     10552     10548     10551     10553     10548     10551     10554
     10552     10551     10553     10552     10551     10554     10553     10551     10554
     10551     10554     10555     10551     10554     10556     10551     10554     10557
     10555     10554     10556     10555     10554     10557     10556     10554     10557
     10554     10557     10558     10554     10557     10559     10554     10557     10560
     10558     10557     10559     10558     10557     10560     10559     10557     10560
     10562     10561     10563     10562     10561     10564     10562     10561     10565
     10563     10561     10564     10563     10561     10565     10564     10561     10565
     10561     10565     10566     10561     10565     10567     10561     10565     10568
     10566     10565     10567     10566     10565     10568     10567     10565     10568
     10565     10568     10569     10565     10568     10570     10565     10568     10571
     10569     10568     10570     10569     10568     10571     10570     10568     10571
     10568     10571     10572     10568     10571     10573     10568     10571     10574
     10572     10571     10573     10572     10571     10574     10573     10571     10574
     10571     10574     10575     10571     10574     10576     10571     10574     10577
     10575     10574     10576     10575     10574     10577     10576     10574     10577
     10574     10577     10578     10574     10577     10579     10574     10577     10580
     10578     10577     10579     10578     10577     10580     10579     10577     10580
     10577     10580     10581     10577     10580     10582     10577     10580     10583
     10581     10580     10582     10581     10580     10583     10582     10580     10583
     10580     10583     10584     10580     10583     10585     10580     10583     10586
     10584     10583     10585     10584     10583     10586     10585     10583     10586
     10583     10586     10587     10583     10586     10588     10583     10586     10589
     10587     10586     10588     10587     10586     10589     10588     10586     10589
     10586     10589     10590     10586     10589     10591     10586     10589     10592
     10590     10589     10591     10590     10589     10592     10591     10589     10592
     10589     10592     10593     10589     10592     10594     10589     10592     10595
     10593     10592     10594     10593     10592     10595     10594     10592     10595
     10592     10595     10596     10592     10595     10597     10592     10595     10598
     10596     10595     10597     10596     10595     10598     10597     10595     10598
     10595     10598     10599     10595     10598     10600     10595     10598     10601
     10599     10598     10600     10599     10598     10601     10600     10598     10601
     10598     10601     10602     10598     10601     10603     10598     10601     10604
     10602     10601     10603     10602     10601     10604     10603     10601     10604
     10607     10604     10601     10607     10604     10605     10607     10604     10606
     10601     10604     10605     10601     10604     10606     10605     10604     10606
     10604     10607     10608     10604     10607     10609     10608     10607     10609
     10607     10609     10610     10609     10610     10611     10609     10610     10612
     10609     10610     10613     10611     10610     10612     10611     10610     10613
     10612     10610     10613     10610     10613     10614     10610     10613     10615
     10610     10613     10642     10614     10613     10615     10614     10613     10642
     10615     10613     10642     10613     10615     10616     10613     10615     10617
     10613     10615     10618     10616     10615     10617     10616     10615     10618
     10617     10615     10618     10615     10618     10619     10618     10619     10620
     10618     10619     10640     10618     10619     10641     10620     10619     10640
     10620     10619     10641     10640     10619     10641     10619     10620     10621
     10620     10621     10622     10620     10621     10623     10620     10621     10624
     10622     10621     10623     10622     10621     10624     10623     10621     10624
     10621     10624     10625     10621     10624     10626     10621     10624     10627
     10625     10624     10626     10625     10624     10627     10626     10624     10627
     10624     10627     10628     10624     10627     10632     10624     10627     10636
     10628     10627     10632     10628     10627     10636     10632     10627     10636
     10627     10628     10629     10627     10628     10630     10627     10628     10631
     10629     10628     10630     10629     10628     10631     10630     10628     10631
     10627     10632     10633     10627     10632     10634     10627     10632     10635
     10633     10632     10634     10633     10632     10635     10634     10632     10635
     10627     10636     10637     10627     10636     10638     10627     10636     10639
     10637     10636     10638     10637     10636     10639     10638     10636     10639
     10613     10642     10643     10645     10643     10642     10645     10643     10644
     10642     10643     10644     10643     10645     10646     10643     10645     10647
     10643     10645     10648     10646     10645     10647     10646     10645     10648
     10647     10645     10648     10645     10648     10649     10645     10648     10650
     10645     10648     10651     10649     10648     10650     10649     10648     10651
     10650     10648     10651     10648     10651     10652     10648     10651     10653
     10648     10651     10654     10652     10651     10653     10652     10651     10654
     10653     10651     10654     10651     10654     10655     10651     10654     10656
     10651     10654     10657     10655     10654     10656     10655     10654     10657
     10656     10654     10657     10654     10657     10658     10654     10657     10659
     10654     10657     10660     10658     10657     10659     10658     10657     10660
     10659     10657     10660     10657     10660     10661     10657     10660     10662
     10657     10660     10663     10661     10660     10662     10661     10660     10663
     10662     10660     10663     10660     10663     10664     10660     10663     10665
     10660     10663     10666     10664     10663     10665     10664     10663     10666
     10665     10663     10666     10663     10666     10667     10663     10666     10668
     10667     10666     10668     10666     10668     10669     10666     10668     10670
     10669     10668     10670     10668     10670     10671     10668     10670     10672
     10668     10670     10673     10671     10670     10672     10671     10670     10673
     10672     10670     10673     10670     10673     10674     10670     10673     10675
     10670     10673     10676     10674     10673     10675     10674     10673     10676
     10675     10673     10676     10673     10676     10677     10673     10676     10678
     10673     10676     10679     10677     10676     10678     10677     10676     10679
     10678     10676     10679     10676     10679     10680     10676     10679     10681
     10676     10679     10682     10680     10679     10681     10680     10679     10682
     10681     10679     10682     10679     10682     10683     10679     10682     10684
     10679     10682     10685     10683     10682     10684     10683     10682     10685
     10684     10682     10685     10682     10685     10686     10682     10685     10687
     10682     10685     10688     10686     10685     10687     10686     10685     10688
     10687     10685     10688     10685     10688     10689     10685     10688     10690
     10685     10688     10691     10689     10688     10690     10689     10688     10691
     10690     10688     10691     10688     10691     10692     10688     10691     10693
     10688     10691     10694     10692     10691     10693     10692     10691     10694
     10693     10691     10694     10696     10695     10697     10696     10695     10698
     10696     10695     10699     10697     10695     10698     10697     10695     10699
     10698     10695     10699     10695     10699     10700     10695     10699     10701
     10695     10699     10702     10700     10699     10701     10700     10699     10702
     10701     10699     10702     10699     10702     10703     10699     10702     10704
     10699     10702     10705     10703     10702     10704     10703     10702     10705
     10704     10702     10705     10702     10705     10706     10702     10705     10707
     10702     10705     10708     10706     10705     10707     10706     10705     10708
     10707     10705     10708     10705     10708     10709     10705     10708     10710
     10705     10708     10711     10709     10708     10710     10709     10708     10711
     10710     10708     10711     10708     10711     10712     10708     10711     10713
     10708     10711     10714     10712     10711     10713     10712     10711     10714
     10713     10711     10714     10711     10714     10715     10711     10714     10716
     10711     10714     10717     10715     10714     10716     10715     10714     10717
     10716     10714     10717     10714     10717     10718     10714     10717     10719
     10714     10717     10720     10718     10717     10719     10718     10717     10720
     10719     10717     10720     10717     10720     10721     10717     10720     10722
     10717     10720     10723     10721     10720     10722     10721     10720     10723
     10722     10720     10723     10720     10723     10724     10720     10723     10725
     10720     10723     10726     10724     10723     10725     10724     10723     10726
     10725     10723     10726     10723     10726     10727     10723     10726     10728
     10723     10726     10729     10727     10726     10728     10727     10726     10729
     10728     10726     10729     10726     10729     10730     10726     10729     10731
     10726     10729     10732     10730     10729     10731     10730     10729     10732
     10731     10729     10732     10729     10732     10733     10729     10732     10734
     10729     10732     10735     10733     10732     10734     10733     10732     10735
     10734     10732     10735     10732     10735     10736     10732     10735     10737
     10732     10735     10738     10736     10735     10737     10736     10735     10738
     10737     10735     10738     10741     10738     10735     10741     10738     10739
     10741     10738     10740     10735     10738     10739     10735     10738     10740
     10739     10738     10740     10738     10741     10742     10738     10741     10743
     10742     10741     10743     10741     10743     10744     10743     10744     10745
     10743     10744     10746     10743     10744     10747     10745     10744     10746
     10745     10744     10747     10746     10744     10747     10744     10747     10748
     10744     10747     10749     10744     10747     10776     10748     10747     10749
     10748     10747     10776     10749     10747     10776     10747     10749     10750
     10747     10749     10751     10747     10749     10752     10750     10749     10751
     10750     10749     10752     10751     10749     10752     10749     10752     10753
     10752     10753     10754     10752     10753     10774     10752     10753     10775
     10754     10753     10774     10754     10753     10775     10774     10753     10775
     10753     10754     10755     10754     10755     10756     10754     10755     10757
     10754     10755     10758     10756     10755     10757     10756     10755     10758
     10757     10755     10758     10755     10758     10759     10755     10758     10760
     10755     10758     10761     10759     10758     10760     10759     10758     10761
     10760     10758     10761     10758     10761     10762     10758     10761     10766
     10758     10761     10770     10762     10761     10766     10762     10761     10770
     10766     10761     10770     10761     10762     10763     10761     10762     10764
     10761     10762     10765     10763     10762     10764     10763     10762     10765
     10764     10762     10765     10761     10766     10767     10761     10766     10768
     10761     10766     10769     10767     10766     10768     10767     10766     10769
     10768     10766     10769     10761     10770     10771     10761     10770     10772
     10761     10770     10773     10771     10770     10772     10771     10770     10773
     10772     10770     10773     10747     10776     10777     10779     10777     10776
     10779     10777     10778     10776     10777     10778     10777     10779     10780
     10777     10779     10781     10777     10779     10782     10780     10779     10781
     10780     10779     10782     10781     10779     10782     10779     10782     10783
     10779     10782     10784     10779     10782     10785     10783     10782     10784
     10783     10782     10785     10784     10782     10785     10782     10785     10786
     10782     10785     10787     10782     10785     10788     10786     10785     10787
     10786     10785     10788     10787     10785     10788     10785     10788     10789
     10785     10788     10790     10785     10788     10791     10789     10788     10790
     10789     10788     10791     10790     10788     10791     10788     10791     10792
     10788     10791     10793     10788     10791     10794     10792     10791     10793
     10792     10791     10794     10793     10791     10794     10791     10794     10795
     10791     10794     10796     10791     10794     10797     10795     10794     10796
     10795     10794     10797     10796     10794     10797     10794     10797     10798
     10794     10797     10799     10794     10797     10800     10798     10797     10799
     10798     10797     10800     10799     10797     10800     10797     10800     10801
     10797     10800     10802     10801     10800     10802     10800     10802     10803
     10800     10802     10804     10803     10802     10804     10802     10804     10805
     10802     10804     10806     10802     10804     10807     10805     10804     10806
     10805     10804     10807     10806     10804     10807     10804     10807     10808
     10804     10807     10809     10804     10807     10810     10808     10807     10809
     10808     10807     10810     10809     10807     10810     10807     10810     10811
     10807     10810     10812     10807     10810     10813     10811     10810     10812
     10811     10810     10813     10812     10810     10813     10810     10813     10814
     10810     10813     10815     10810     10813     10816     10814     10813     10815
     10814     10813     10816     10815     10813     10816     10813     10816     10817
     10813     10816     10818     10813     10816     10819     10817     10816     10818
     10817     10816     10819     10818     10816     10819     10816     10819     10820
     10816     10819     10821     10816     10819     10822     10820     10819     10821
     10820     10819     10822     10821     10819     10822     10819     10822     10823
     10819     10822     10824     10819     10822     10825     10823     10822     10824
     10823     10822     10825     10824     10822     10825     10822     10825     10826
     10822     10825     10827     10822     10825     10828     10826     10825     10827
     10826     10825     10828     10827     10825     10828     10830     10829     10831
     10830     10829     10832     10830     10829     10833     10831     10829     10832
     10831     10829     10833     10832     10829     10833     10829     10833     10834
     10829     10833     10835     10829     10833     10836     10834     10833     10835
     10834     10833     10836     10835     10833     10836     10833     10836     10837
     10833     10836     10838     10833     10836     10839     10837     10836     10838
     10837     10836     10839     10838     10836     10839     10836     10839     10840
     10836     10839     10841     10836     10839     10842     10840     10839     10841
     10840     10839     10842     10841     10839     10842     10839     10842     10843
     10839     10842     10844     10839     10842     10845     10843     10842     10844
     10843     10842     10845     10844     10842     10845     10842     10845     10846
     10842     10845     10847     10842     10845     10848     10846     10845     10847
     10846     10845     10848     10847     10845     10848     10845     10848     10849
     10845     10848     10850     10845     10848     10851     10849     10848     10850
     10849     10848     10851     10850     10848     10851     10848     10851     10852
     10848     10851     10853     10848     10851     10854     10852     10851     10853
     10852     10851     10854     10853     10851     10854     10851     10854     10855
     10851     10854     10856     10851     10854     10857     10855     10854     10856
     10855     10854     10857     10856     10854     10857     10854     10857     10858
     10854     10857     10859     10854     10857     10860     10858     10857     10859
     10858     10857     10860     10859     10857     10860     10857     10860     10861
     10857     10860     10862     10857     10860     10863     10861     10860     10862
     10861     10860     10863     10862     10860     10863     10860     10863     10864
     10860     10863     10865     10860     10863     10866     10864     10863     10865
     10864     10863     10866     10865     10863     10866     10863     10866     10867
     10863     10866     10868     10863     10866     10869     10867     10866     10868
     10867     10866     10869     10868     10866     10869     10866     10869     10870
     10866     10869     10871     10866     10869     10872     10870     10869     10871
     10870     10869     10872     10871     10869     10872     10875     10872     10869
     10875     10872     10873     10875     10872     10874     10869     10872     10873
     10869     10872     10874     10873     10872     10874     10872     10875     10876
     10872     10875     10877     10876     10875     10877     10875     10877     10878
     10877     10878     10879     10877     10878     10880     10877     10878     10881
     10879     10878     10880     10879     10878     10881     10880     10878     10881
     10878     10881     10882     10878     10881     10883     10878     10881     10910
     10882     10881     10883     10882     10881     10910     10883     10881     10910
     10881     10883     10884     10881     10883     10885     10881     10883     10886
     10884     10883     10885     10884     10883     10886     10885     10883     10886
     10883     10886     10887     10886     10887     10888     10886     10887     10908
     10886     10887     10909     10888     10887     10908     10888     10887     10909
     10908     10887     10909     10887     10888     10889     10888     10889     10890
     10888     10889     10891     10888     10889     10892     10890     10889     10891
     10890     10889     10892     10891     10889     10892     10889     10892     10893
     10889     10892     10894     10889     10892     10895     10893     10892     10894
     10893     10892     10895     10894     10892     10895     10892     10895     10896
     10892     10895     10900     10892     10895     10904     10896     10895     10900
     10896     10895     10904     10900     10895     10904     10895     10896     10897
     10895     10896     10898     10895     10896     10899     10897     10896     10898
     10897     10896     10899     10898     10896     10899     10895     10900     10901
     10895     10900     10902     10895     10900     10903     10901     10900     10902
     10901     10900     10903     10902     10900     10903     10895     10904     10905
     10895     10904     10906     10895     10904     10907     10905     10904     10906
     10905     10904     10907     10906     10904     10907     10881     10910     10911
     10913     10911     10910     10913     10911     10912     10910     10911     10912
     10911     10913     10914     10911     10913     10915     10911     10913     10916
     10914     10913     10915     10914     10913     10916     10915     10913     10916
     10913     10916     10917     10913     10916     10918     10913     10916     10919
     10917     10916     10918     10917     10916     10919     10918     10916     10919
     10916     10919     10920     10916     10919     10921     10916     10919     10922
     10920     10919     10921     10920     10919     10922     10921     10919     10922
     10919     10922     10923     10919     10922     10924     10919     10922     10925
     10923     10922     10924     10923     10922     10925     10924     10922     10925
     10922     10925     10926     10922     10925     10927     10922     10925     10928
     10926     10925     10927     10926     10925     10928     10927     10925     10928
     10925     10928     10929     10925     10928     10930     10925     10928     10931
     10929     10928     10930     10929     10928     10931     10930     10928     10931
     10928     10931     10932     10928     10931     10933     10928     10931     10934
     10932     10931     10933     10932     10931     10934     10933     10931     10934
     10931     10934     10935     10931     10934     10936     10935     10934     10936
     10934     10936     10937     10934     10936     10938     10937     10936     10938
     10936     10938     10939     10936     10938     10940     10936     10938     10941
     10939     10938     10940     10939     10938     10941     10940     10938     10941
     10938     10941     10942     10938     10941     10943     10938     10941     10944
     10942     10941     10943     10942     10941     10944     10943     10941     10944
     10941     10944     10945     10941     10944     10946     10941     10944     10947
     10945     10944     10946     10945     10944     10947     10946     10944     10947
     10944     10947     10948     10944     10947     10949     10944     10947     10950
     10948     10947     10949     10948     10947     10950     10949     10947     10950
     10947     10950     10951     10947     10950     10952     10947     10950     10953
     10951     10950     10952     10951     10950     10953     10952     10950     10953
     10950     10953     10954     10950     10953     10955     10950     10953     10956
     10954     10953     10955     10954     10953     10956     10955     10953     10956
     10953     10956     10957     10953     10956     10958     10953     10956     10959
     10957     10956     10958     10957     10956     10959     10958     10956     10959
     10956     10959     10960     10956     10959     10961     10956     10959     10962
     10960     10959     10961     10960     10959     10962     10961     10959     10962
     10964     10963     10965     10964     10963     10966     10964     10963     10967
     10965     10963     10966     10965     10963     10967     10966     10963     10967
     10963     10967     10968     10963     10967     10969     10963     10967     10970
     10968     10967     10969     10968     10967     10970     10969     10967     10970
     10967     10970     10971     10967     10970     10972     10967     10970     10973
     10971     10970     10972     10971     10970     10973     10972     10970     10973
     10970     10973     10974     10970     10973     10975     10970     10973     10976
     10974     10973     10975     10974     10973     10976     10975     10973     10976
     10973     10976     10977     10973     10976     10978     10973     10976     10979
     10977     10976     10978     10977     10976     10979     10978     10976     10979
     10976     10979     10980     10976     10979     10981     10976     10979     10982
     10980     10979     10981     10980     10979     10982     10981     10979     10982
     10979     10982     10983     10979     10982     10984     10979     10982     10985
     10983     10982     10984     10983     10982     10985     10984     10982     10985
     10982     10985     10986     10982     10985     10987     10982     10985     10988
     10986     10985     10987     10986     10985     10988     10987     10985     10988
     10985     10988     10989     10985     10988     10990     10985     10988     10991
     10989     10988     10990     10989     10988     10991     10990     10988     10991
     10988     10991     10992     10988     10991     10993     10988     10991     10994
     10992     10991     10993     10992     10991     10994     10993     10991     10994
     10991     10994     10995     10991     10994     10996     10991     10994     10997
     10995     10994     10996     10995     10994     10997     10996     10994     10997
     10994     10997     10998     10994     10997     10999     10994     10997     11000
     10998     10997     10999     10998     10997     11000     10999     10997     11000
     10997     11000     11001     10997     11000     11002     10997     11000     11003
     11001     11000     11002     11001     11000     11003     11002     11000     11003
     11000     11003     11004     11000     11003     11005     11000     11003     11006
     11004     11003     11005     11004     11003     11006     11005     11003     11006
     11009     11006     11003     11009     11006     11007     11009     11006     11008
     11003     11006     11007     11003     11006     11008     11007     11006     11008
     11006     11009     11010     11006     11009     11011     11010     11009     11011
     11009     11011     11012     11011     11012     11013     11011     11012     11014
     11011     11012     11015     11013     11012     11014     11013     11012     11015
     11014     11012     11015     11012     11015     11016     11012     11015     11017
     11012     11015     11044     11016     11015     11017     11016     11015     11044
     11017     11015     11044     11015     11017     11018     11015     11017     11019
     11015     11017     11020     11018     11017     11019     11018     11017     11020
     11019     11017     11020     11017     11020     11021     11020     11021     11022
     11020     11021     11042     11020     11021     11043     11022     11021     11042
     11022     11021     11043     11042     11021     11043     11021     11022     11023
     11022     11023     11024     11022     11023     11025     11022     11023     11026
     11024     11023     11025     11024     11023     11026     11025     11023     11026
     11023     11026     11027     11023     11026     11028     11023     11026     11029
     11027     11026     11028     11027     11026     11029     11028     11026     11029
     11026     11029     11030     11026     11029     11034     11026     11029     11038
     11030     11029     11034     11030     11029     11038     11034     11029     11038
     11029     11030     11031     11029     11030     11032     11029     11030     11033
     11031     11030     11032     11031     11030     11033     11032     11030     11033
     11029     11034     11035     11029     11034     11036     11029     11034     11037
     11035     11034     11036     11035     11034     11037     11036     11034     11037
     11029     11038     11039     11029     11038     11040     11029     11038     11041
     11039     11038     11040     11039     11038     11041     11040     11038     11041
     11015     11044     11045     11047     11045     11044     11047     11045     11046
     11044     11045     11046     11045     11047     11048     11045     11047     11049
     11045     11047     11050     11048     11047     11049     11048     11047     11050
     11049     11047     11050     11047     11050     11051     11047     11050     11052
     11047     11050     11053     11051     11050     11052     11051     11050     11053
     11052     11050     11053     11050     11053     11054     11050     11053     11055
     11050     11053     11056     11054     11053     11055     11054     11053     11056
     11055     11053     11056     11053     11056     11057     11053     11056     11058
     11053     11056     11059     11057     11056     11058     11057     11056     11059
     11058     11056     11059     11056     11059     11060     11056     11059     11061
     11056     11059     11062     11060     11059     11061     11060     11059     11062
     11061     11059     11062     11059     11062     11063     11059     11062     11064
     11059     11062     11065     11063     11062     11064     11063     11062     11065
     11064     11062     11065     11062     11065     11066     11062     11065     11067
     11062     11065     11068     11066     11065     11067     11066     11065     11068
     11067     11065     11068     11065     11068     11069     11065     11068     11070
     11069     11068     11070     11068     11070     11071     11068     11070     11072
     11071     11070     11072     11070     11072     11073     11070     11072     11074
     11070     11072     11075     11073     11072     11074     11073     11072     11075
     11074     11072     11075     11072     11075     11076     11072     11075     11077
     11072     11075     11078     11076     11075     11077     11076     11075     11078
     11077     11075     11078     11075     11078     11079     11075     11078     11080
     11075     11078     11081     11079     11078     11080     11079     11078     11081
     11080     11078     11081     11078     11081     11082     11078     11081     11083
     11078     11081     11084     11082     11081     11083     11082     11081     11084
     11083     11081     11084     11081     11084     11085     11081     11084     11086
     11081     11084     11087     11085     11084     11086     11085     11084     11087
     11086     11084     11087     11084     11087     11088     11084     11087     11089
     11084     11087     11090     11088     11087     11089     11088     11087     11090
     11089     11087     11090     11087     11090     11091     11087     11090     11092
     11087     11090     11093     11091     11090     11092     11091     11090     11093
     11092     11090     11093     11090     11093     11094     11090     11093     11095
     11090     11093     11096     11094     11093     11095     11094     11093     11096
     11095     11093     11096     11098     11097     11099     11098     11097     11100
     11098     11097     11101     11099     11097     11100     11099     11097     11101
     11100     11097     11101     11097     11101     11102     11097     11101     11103
     11097     11101     11104     11102     11101     11103     11102     11101     11104
     11103     11101     11104     11101     11104     11105     11101     11104     11106
     11101     11104     11107     11105     11104     11106     11105     11104     11107
     11106     11104     11107     11104     11107     11108     11104     11107     11109
     11104     11107     11110     11108     11107     11109     11108     11107     11110
     11109     11107     11110     11107     11110     11111     11107     11110     11112
     11107     11110     11113     11111     11110     11112     11111     11110     11113
     11112     11110     11113     11110     11113     11114     11110     11113     11115
     11110     11113     11116     11114     11113     11115     11114     11113     11116
     11115     11113     11116     11113     11116     11117     11113     11116     11118
     11113     11116     11119     11117     11116     11118     11117     11116     11119
     11118     11116     11119     11116     11119     11120     11116     11119     11121
     11116     11119     11122     11120     11119     11121     11120     11119     11122
     11121     11119     11122     11119     11122     11123     11119     11122     11124
     11119     11122     11125     11123     11122     11124     11123     11122     11125
     11124     11122     11125     11122     11125     11126     11122     11125     11127
     11122     11125     11128     11126     11125     11127     11126     11125     11128
     11127     11125     11128     11125     11128     11129     11125     11128     11130
     11125     11128     11131     11129     11128     11130     11129     11128     11131
     11130     11128     11131     11128     11131     11132     11128     11131     11133
     11128     11131     11134     11132     11131     11133     11132     11131     11134
     11133     11131     11134     11131     11134     11135     11131     11134     11136
     11131     11134     11137     11135     11134     11136     11135     11134     11137
     11136     11134     11137     11134     11137     11138     11134     11137     11139
     11134     11137     11140     11138     11137     11139     11138     11137     11140
     11139     11137     11140     11143     11140     11137     11143     11140     11141
     11143     11140     11142     11137     11140     11141     11137     11140     11142
     11141     11140     11142     11140     11143     11144     11140     11143     11145
     11144     11143     11145     11143     11145     11146     11145     11146     11147
     11145     11146     11148     11145     11146     11149     11147     11146     11148
     11147     11146     11149     11148     11146     11149     11146     11149     11150
     11146     11149     11151     11146     11149     11178     11150     11149     11151
     11150     11149     11178     11151     11149     11178     11149     11151     11152
     11149     11151     11153     11149     11151     11154     11152     11151     11153
     11152     11151     11154     11153     11151     11154     11151     11154     11155
     11154     11155     11156     11154     11155     11176     11154     11155     11177
     11156     11155     11176     11156     11155     11177     11176     11155     11177
     11155     11156     11157     11156     11157     11158     11156     11157     11159
     11156     11157     11160     11158     11157     11159     11158     11157     11160
     11159     11157     11160     11157     11160     11161     11157     11160     11162
     11157     11160     11163     11161     11160     11162     11161     11160     11163
     11162     11160     11163     11160     11163     11164     11160     11163     11168
     11160     11163     11172     11164     11163     11168     11164     11163     11172
     11168     11163     11172     11163     11164     11165     11163     11164     11166
     11163     11164     11167     11165     11164     11166     11165     11164     11167
     11166     11164     11167     11163     11168     11169     11163     11168     11170
     11163     11168     11171     11169     11168     11170     11169     11168     11171
     11170     11168     11171     11163     11172     11173     11163     11172     11174
     11163     11172     11175     11173     11172     11174     11173     11172     11175
     11174     11172     11175     11149     11178     11179     11181     11179     11178
     11181     11179     11180     11178     11179     11180     11179     11181     11182
     11179     11181     11183     11179     11181     11184     11182     11181     11183
     11182     11181     11184     11183     11181     11184     11181     11184     11185
     11181     11184     11186     11181     11184     11187     11185     11184     11186
     11185     11184     11187     11186     11184     11187     11184     11187     11188
     11184     11187     11189     11184     11187     11190     11188     11187     11189
     11188     11187     11190     11189     11187     11190     11187     11190     11191
     11187     11190     11192     11187     11190     11193     11191     11190     11192
     11191     11190     11193     11192     11190     11193     11190     11193     11194
     11190     11193     11195     11190     11193     11196     11194     11193     11195
     11194     11193     11196     11195     11193     11196     11193     11196     11197
     11193     11196     11198     11193     11196     11199     11197     11196     11198
     11197     11196     11199     11198     11196     11199     11196     11199     11200
     11196     11199     11201     11196     11199     11202     11200     11199     11201
     11200     11199     11202     11201     11199     11202     11199     11202     11203
     11199     11202     11204     11203     11202     11204     11202     11204     11205
     11202     11204     11206     11205     11204     11206     11204     11206     11207
     11204     11206     11208     11204     11206     11209     11207     11206     11208
     11207     11206     11209     11208     11206     11209     11206     11209     11210
     11206     11209     11211     11206     11209     11212     11210     11209     11211
     11210     11209     11212     11211     11209     11212     11209     11212     11213
     11209     11212     11214     11209     11212     11215     11213     11212     11214
     11213     11212     11215     11214     11212     11215     11212     11215     11216
     11212     11215     11217     11212     11215     11218     11216     11215     11217
     11216     11215     11218     11217     11215     11218     11215     11218     11219
     11215     11218     11220     11215     11218     11221     11219     11218     11220
     11219     11218     11221     11220     11218     11221     11218     11221     11222
     11218     11221     11223     11218     11221     11224     11222     11221     11223
     11222     11221     11224     11223     11221     11224     11221     11224     11225
     11221     11224     11226     11221     11224     11227     11225     11224     11226
     11225     11224     11227     11226     11224     11227     11224     11227     11228
     11224     11227     11229     11224     11227     11230     11228     11227     11229
     11228     11227     11230     11229     11227     11230     11232     11231     11233
     11232     11231     11234     11232     11231     11235     11233     11231     11234
     11233     11231     11235     11234     11231     11235     11231     11235     11236
     11231     11235     11237     11231     11235     11238     11236     11235     11237
     11236     11235     11238     11237     11235     11238     11235     11238     11239
     11235     11238     11240     11235     11238     11241     11239     11238     11240
     11239     11238     11241     11240     11238     11241     11238     11241     11242
     11238     11241     11243     11238     11241     11244     11242     11241     11243
     11242     11241     11244     11243     11241     11244     11241     11244     11245
     11241     11244     11246     11241     11244     11247     11245     11244     11246
     11245     11244     11247     11246     11244     11247     11244     11247     11248
     11244     11247     11249     11244     11247     11250     11248     11247     11249
     11248     11247     11250     11249     11247     11250     11247     11250     11251
     11247     11250     11252     11247     11250     11253     11251     11250     11252
     11251     11250     11253     11252     11250     11253     11250     11253     11254
     11250     11253     11255     11250     11253     11256     11254     11253     11255
     11254     11253     11256     11255     11253     11256     11253     11256     11257
     11253     11256     11258     11253     11256     11259     11257     11256     11258
     11257     11256     11259     11258     11256     11259     11256     11259     11260
     11256     11259     11261     11256     11259     11262     11260     11259     11261
     11260     11259     11262     11261     11259     11262     11259     11262     11263
     11259     11262     11264     11259     11262     11265     11263     11262     11264
     11263     11262     11265     11264     11262     11265     11262     11265     11266
     11262     11265     11267     11262     11265     11268     11266     11265     11267
     11266     11265     11268     11267     11265     11268     11265     11268     11269
     11265     11268     11270     11265     11268     11271     11269     11268     11270
     11269     11268     11271     11270     11268     11271     11268     11271     11272
     11268     11271     11273     11268     11271     11274     11272     11271     11273
     11272     11271     11274     11273     11271     11274     11277     11274     11271
     11277     11274     11275     11277     11274     11276     11271     11274     11275
     11271     11274     11276     11275     11274     11276     11274     11277     11278
     11274     11277     11279     11278     11277     11279     11277     11279     11280
     11279     11280     11281     11279     11280     11282     11279     11280     11283
     11281     11280     11282     11281     11280     11283     11282     11280     11283
     11280     11283     11284     11280     11283     11285     11280     11283     11312
     11284     11283     11285     11284     11283     11312     11285     11283     11312
     11283     11285     11286     11283     11285     11287     11283     11285     11288
     11286     11285     11287     11286     11285     11288     11287     11285     11288
     11285     11288     11289     11288     11289     11290     11288     11289     11310
     11288     11289     11311     11290     11289     11310     11290     11289     11311
     11310     11289     11311     11289     11290     11291     11290     11291     11292
     11290     11291     11293     11290     11291     11294     11292     11291     11293
     11292     11291     11294     11293     11291     11294     11291     11294     11295
     11291     11294     11296     11291     11294     11297     11295     11294     11296
     11295     11294     11297     11296     11294     11297     11294     11297     11298
     11294     11297     11302     11294     11297     11306     11298     11297     11302
     11298     11297     11306     11302     11297     11306     11297     11298     11299
     11297     11298     11300     11297     11298     11301     11299     11298     11300
     11299     11298     11301     11300     11298     11301     11297     11302     11303
     11297     11302     11304     11297     11302     11305     11303     11302     11304
     11303     11302     11305     11304     11302     11305     11297     11306     11307
     11297     11306     11308     11297     11306     11309     11307     11306     11308
     11307     11306     11309     11308     11306     11309     11283     11312     11313
     11315     11313     11312     11315     11313     11314     11312     11313     11314
     11313     11315     11316     11313     11315     11317     11313     11315     11318
     11316     11315     11317     11316     11315     11318     11317     11315     11318
     11315     11318     11319     11315     11318     11320     11315     11318     11321
     11319     11318     11320     11319     11318     11321     11320     11318     11321
     11318     11321     11322     11318     11321     11323     11318     11321     11324
     11322     11321     11323     11322     11321     11324     11323     11321     11324
     11321     11324     11325     11321     11324     11326     11321     11324     11327
     11325     11324     11326     11325     11324     11327     11326     11324     11327
     11324     11327     11328     11324     11327     11329     11324     11327     11330
     11328     11327     11329     11328     11327     11330     11329     11327     11330
     11327     11330     11331     11327     11330     11332     11327     11330     11333
     11331     11330     11332     11331     11330     11333     11332     11330     11333
     11330     11333     11334     11330     11333     11335     11330     11333     11336
     11334     11333     11335     11334     11333     11336     11335     11333     11336
     11333     11336     11337     11333     11336     11338     11337     11336     11338
     11336     11338     11339     11336     11338     11340     11339     11338     11340
     11338     11340     11341     11338     11340     11342     11338     11340     11343
     11341     11340     11342     11341     11340     11343     11342     11340     11343
     11340     11343     11344     11340     11343     11345     11340     11343     11346
     11344     11343     11345     11344     11343     11346     11345     11343     11346
     11343     11346     11347     11343     11346     11348     11343     11346     11349
     11347     11346     11348     11347     11346     11349     11348     11346     11349
     11346     11349     11350     11346     11349     11351     11346     11349     11352
     11350     11349     11351     11350     11349     11352     11351     11349     11352
     11349     11352     11353     11349     11352     11354     11349     11352     11355
     11353     11352     11354     11353     11352     11355     11354     11352     11355
     11352     11355     11356     11352     11355     11357     11352     11355     11358
     11356     11355     11357     11356     11355     11358     11357     11355     11358
     11355     11358     11359     11355     11358     11360     11355     11358     11361
     11359     11358     11360     11359     11358     11361     11360     11358     11361
     11358     11361     11362     11358     11361     11363     11358     11361     11364
     11362     11361     11363     11362     11361     11364     11363     11361     11364
     11366     11365     11367     11366     11365     11368     11366     11365     11369
     11367     11365     11368     11367     11365     11369     11368     11365     11369
     11365     11369     11370     11365     11369     11371     11365     11369     11372
     11370     11369     11371     11370     11369     11372     11371     11369     11372
     11369     11372     11373     11369     11372     11374     11369     11372     11375
     11373     11372     11374     11373     11372     11375     11374     11372     11375
     11372     11375     11376     11372     11375     11377     11372     11375     11378
     11376     11375     11377     11376     11375     11378     11377     11375     11378
     11375     11378     11379     11375     11378     11380     11375     11378     11381
     11379     11378     11380     11379     11378     11381     11380     11378     11381
     11378     11381     11382     11378     11381     11383     11378     11381     11384
     11382     11381     11383     11382     11381     11384     11383     11381     11384
     11381     11384     11385     11381     11384     11386     11381     11384     11387
     11385     11384     11386     11385     11384     11387     11386     11384     11387
     11384     11387     11388     11384     11387     11389     11384     11387     11390
     11388     11387     11389     11388     11387     11390     11389     11387     11390
     11387     11390     11391     11387     11390     11392     11387     11390     11393
     11391     11390     11392     11391     11390     11393     11392     11390     11393
     11390     11393     11394     11390     11393     11395     11390     11393     11396
     11394     11393     11395     11394     11393     11396     11395     11393     11396
     11393     11396     11397     11393     11396     11398     11393     11396     11399
     11397     11396     11398     11397     11396     11399     11398     11396     11399
     11396     11399     11400     11396     11399     11401     11396     11399     11402
     11400     11399     11401     11400     11399     11402     11401     11399     11402
     11399     11402     11403     11399     11402     11404     11399     11402     11405
     11403     11402     11404     11403     11402     11405     11404     11402     11405
     11402     11405     11406     11402     11405     11407     11402     11405     11408
     11406     11405     11407     11406     11405     11408     11407     11405     11408
     11411     11408     11405     11411     11408     11409     11411     11408     11410
     11405     11408     11409     11405     11408     11410     11409     11408     11410
     11408     11411     11412     11408     11411     11413     11412     11411     11413
     11411     11413     11414     11413     11414     11415     11413     11414     11416
     11413     11414     11417     11415     11414     11416     11415     11414     11417
     11416     11414     11417     11414     11417     11418     11414     11417     11419
     11414     11417     11446     11418     11417     11419     11418     11417     11446
     11419     11417     11446     11417     11419     11420     11417     11419     11421
     11417     11419     11422     11420     11419     11421     11420     11419     11422
     11421     11419     11422     11419     11422     11423     11422     11423     11424
     11422     11423     11444     11422     11423     11445     11424     11423     11444
     11424     11423     11445     11444     11423     11445     11423     11424     11425
     11424     11425     11426     11424     11425     11427     11424     11425     11428
     11426     11425     11427     11426     11425     11428     11427     11425     11428
     11425     11428     11429     11425     11428     11430     11425     11428     11431
     11429     11428     11430     11429     11428     11431     11430     11428     11431
     11428     11431     11432     11428     11431     11436     11428     11431     11440
     11432     11431     11436     11432     11431     11440     11436     11431     11440
     11431     11432     11433     11431     11432     11434     11431     11432     11435
     11433     11432     11434     11433     11432     11435     11434     11432     11435
     11431     11436     11437     11431     11436     11438     11431     11436     11439
     11437     11436     11438     11437     11436     11439     11438     11436     11439
     11431     11440     11441     11431     11440     11442     11431     11440     11443
     11441     11440     11442     11441     11440     11443     11442     11440     11443
     11417     11446     11447     11449     11447     11446     11449     11447     11448
     11446     11447     11448     11447     11449     11450     11447     11449     11451
     11447     11449     11452     11450     11449     11451     11450     11449     11452
     11451     11449     11452     11449     11452     11453     11449     11452     11454
     11449     11452     11455     11453     11452     11454     11453     11452     11455
     11454     11452     11455     11452     11455     11456     11452     11455     11457
     11452     11455     11458     11456     11455     11457     11456     11455     11458
     11457     11455     11458     11455     11458     11459     11455     11458     11460
     11455     11458     11461     11459     11458     11460     11459     11458     11461
     11460     11458     11461     11458     11461     11462     11458     11461     11463
     11458     11461     11464     11462     11461     11463     11462     11461     11464
     11463     11461     11464     11461     11464     11465     11461     11464     11466
     11461     11464     11467     11465     11464     11466     11465     11464     11467
     11466     11464     11467     11464     11467     11468     11464     11467     11469
     11464     11467     11470     11468     11467     11469     11468     11467     11470
     11469     11467     11470     11467     11470     11471     11467     11470     11472
     11471     11470     11472     11470     11472     11473     11470     11472     11474
     11473     11472     11474     11472     11474     11475     11472     11474     11476
     11472     11474     11477     11475     11474     11476     11475     11474     11477
     11476     11474     11477     11474     11477     11478     11474     11477     11479
     11474     11477     11480     11478     11477     11479     11478     11477     11480
     11479     11477     11480     11477     11480     11481     11477     11480     11482
     11477     11480     11483     11481     11480     11482     11481     11480     11483
     11482     11480     11483     11480     11483     11484     11480     11483     11485
     11480     11483     11486     11484     11483     11485     11484     11483     11486
     11485     11483     11486     11483     11486     11487     11483     11486     11488
     11483     11486     11489     11487     11486     11488     11487     11486     11489
     11488     11486     11489     11486     11489     11490     11486     11489     11491
     11486     11489     11492     11490     11489     11491     11490     11489     11492
     11491     11489     11492     11489     11492     11493     11489     11492     11494
     11489     11492     11495     11493     11492     11494     11493     11492     11495
     11494     11492     11495     11492     11495     11496     11492     11495     11497
     11492     11495     11498     11496     11495     11497     11496     11495     11498
     11497     11495     11498     11500     11499     11501     11500     11499     11502
     11500     11499     11503     11501     11499     11502     11501     11499     11503
     11502     11499     11503     11499     11503     11504     11499     11503     11505
     11499     11503     11506     11504     11503     11505     11504     11503     11506
     11505     11503     11506     11503     11506     11507     11503     11506     11508
     11503     11506     11509     11507     11506     11508     11507     11506     11509
     11508     11506     11509     11506     11509     11510     11506     11509     11511
     11506     11509     11512     11510     11509     11511     11510     11509     11512
     11511     11509     11512     11509     11512     11513     11509     11512     11514
     11509     11512     11515     11513     11512     11514     11513     11512     11515
     11514     11512     11515     11512     11515     11516     11512     11515     11517
     11512     11515     11518     11516     11515     11517     11516     11515     11518
     11517     11515     11518     11515     11518     11519     11515     11518     11520
     11515     11518     11521     11519     11518     11520     11519     11518     11521
     11520     11518     11521     11518     11521     11522     11518     11521     11523
     11518     11521     11524     11522     11521     11523     11522     11521     11524
     11523     11521     11524     11521     11524     11525     11521     11524     11526
     11521     11524     11527     11525     11524     11526     11525     11524     11527
     11526     11524     11527     11524     11527     11528     11524     11527     11529
     11524     11527     11530     11528     11527     11529     11528     11527     11530
     11529     11527     11530     11527     11530     11531     11527     11530     11532
     11527     11530     11533     11531     11530     11532     11531     11530     11533
     11532     11530     11533     11530     11533     11534     11530     11533     11535
     11530     11533     11536     11534     11533     11535     11534     11533     11536
     11535     11533     11536     11533     11536     11537     11533     11536     11538
     11533     11536     11539     11537     11536     11538     11537     11536     11539
     11538     11536     11539     11536     11539     11540     11536     11539     11541
     11536     11539     11542     11540     11539     11541     11540     11539     11542
     11541     11539     11542     11545     11542     11539     11545     11542     11543
     11545     11542     11544     11539     11542     11543     11539     11542     11544
     11543     11542     11544     11542     11545     11546     11542     11545     11547
     11546     11545     11547     11545     11547     11548     11547     11548     11549
     11547     11548     11550     11547     11548     11551     11549     11548     11550
     11549     11548     11551     11550     11548     11551     11548     11551     11552
     11548     11551     11553     11548     11551     11580     11552     11551     11553
     11552     11551     11580     11553     11551     11580     11551     11553     11554
     11551     11553     11555     11551     11553     11556     11554     11553     11555
     11554     11553     11556     11555     11553     11556     11553     11556     11557
     11556     11557     11558     11556     11557     11578     11556     11557     11579
     11558     11557     11578     11558     11557     11579     11578     11557     11579
     11557     11558     11559     11558     11559     11560     11558     11559     11561
     11558     11559     11562     11560     11559     11561     11560     11559     11562
     11561     11559     11562     11559     11562     11563     11559     11562     11564
     11559     11562     11565     11563     11562     11564     11563     11562     11565
     11564     11562     11565     11562     11565     11566     11562     11565     11570
     11562     11565     11574     11566     11565     11570     11566     11565     11574
     11570     11565     11574     11565     11566     11567     11565     11566     11568
     11565     11566     11569     11567     11566     11568     11567     11566     11569
     11568     11566     11569     11565     11570     11571     11565     11570     11572
     11565     11570     11573     11571     11570     11572     11571     11570     11573
     11572     11570     11573     11565     11574     11575     11565     11574     11576
     11565     11574     11577     11575     11574     11576     11575     11574     11577
     11576     11574     11577     11551     11580     11581     11583     11581     11580
     11583     11581     11582     11580     11581     11582     11581     11583     11584
     11581     11583     11585     11581     11583     11586     11584     11583     11585
     11584     11583     11586     11585     11583     11586     11583     11586     11587
     11583     11586     11588     11583     11586     11589     11587     11586     11588
     11587     11586     11589     11588     11586     11589     11586     11589     11590
     11586     11589     11591     11586     11589     11592     11590     11589     11591
     11590     11589     11592     11591     11589     11592     11589     11592     11593
     11589     11592     11594     11589     11592     11595     11593     11592     11594
     11593     11592     11595     11594     11592     11595     11592     11595     11596
     11592     11595     11597     11592     11595     11598     11596     11595     11597
     11596     11595     11598     11597     11595     11598     11595     11598     11599
     11595     11598     11600     11595     11598     11601     11599     11598     11600
     11599     11598     11601     11600     11598     11601     11598     11601     11602
     11598     11601     11603     11598     11601     11604     11602     11601     11603
     11602     11601     11604     11603     11601     11604     11601     11604     11605
     11601     11604     11606     11605     11604     11606     11604     11606     11607
     11604     11606     11608     11607     11606     11608     11606     11608     11609
     11606     11608     11610     11606     11608     11611     11609     11608     11610
     11609     11608     11611     11610     11608     11611     11608     11611     11612
     11608     11611     11613     11608     11611     11614     11612     11611     11613
     11612     11611     11614     11613     11611     11614     11611     11614     11615
     11611     11614     11616     11611     11614     11617     11615     11614     11616
     11615     11614     11617     11616     11614     11617     11614     11617     11618
     11614     11617     11619     11614     11617     11620     11618     11617     11619
     11618     11617     11620     11619     11617     11620     11617     11620     11621
     11617     11620     11622     11617     11620     11623     11621     11620     11622
     11621     11620     11623     11622     11620     11623     11620     11623     11624
     11620     11623     11625     11620     11623     11626     11624     11623     11625
     11624     11623     11626     11625     11623     11626     11623     11626     11627
     11623     11626     11628     11623     11626     11629     11627     11626     11628
     11627     11626     11629     11628     11626     11629     11626     11629     11630
     11626     11629     11631     11626     11629     11632     11630     11629     11631
     11630     11629     11632     11631     11629     11632     11634     11633     11635
     11634     11633     11636     11634     11633     11637     11635     11633     11636
     11635     11633     11637     11636     11633     11637     11633     11637     11638
     11633     11637     11639     11633     11637     11640     11638     11637     11639
     11638     11637     11640     11639     11637     11640     11637     11640     11641
     11637     11640     11642     11637     11640     11643     11641     11640     11642
     11641     11640     11643     11642     11640     11643     11640     11643     11644
     11640     11643     11645     11640     11643     11646     11644     11643     11645
     11644     11643     11646     11645     11643     11646     11643     11646     11647
     11643     11646     11648     11643     11646     11649     11647     11646     11648
     11647     11646     11649     11648     11646     11649     11646     11649     11650
     11646     11649     11651     11646     11649     11652     11650     11649     11651
     11650     11649     11652     11651     11649     11652     11649     11652     11653
     11649     11652     11654     11649     11652     11655     11653     11652     11654
     11653     11652     11655     11654     11652     11655     11652     11655     11656
     11652     11655     11657     11652     11655     11658     11656     11655     11657
     11656     11655     11658     11657     11655     11658     11655     11658     11659
     11655     11658     11660     11655     11658     11661     11659     11658     11660
     11659     11658     11661     11660     11658     11661     11658     11661     11662
     11658     11661     11663     11658     11661     11664     11662     11661     11663
     11662     11661     11664     11663     11661     11664     11661     11664     11665
     11661     11664     11666     11661     11664     11667     11665     11664     11666
     11665     11664     11667     11666     11664     11667     11664     11667     11668
     11664     11667     11669     11664     11667     11670     11668     11667     11669
     11668     11667     11670     11669     11667     11670     11667     11670     11671
     11667     11670     11672     11667     11670     11673     11671     11670     11672
     11671     11670     11673     11672     11670     11673     11670     11673     11674
     11670     11673     11675     11670     11673     11676     11674     11673     11675
     11674     11673     11676     11675     11673     11676     11679     11676     11673
     11679     11676     11677     11679     11676     11678     11673     11676     11677
     11673     11676     11678     11677     11676     11678     11676     11679     11680
     11676     11679     11681     11680     11679     11681     11679     11681     11682
     11681     11682     11683     11681     11682     11684     11681     11682     11685
     11683     11682     11684     11683     11682     11685     11684     11682     11685
     11682     11685     11686     11682     11685     11687     11682     11685     11714
     11686     11685     11687     11686     11685     11714     11687     11685     11714
     11685     11687     11688     11685     11687     11689     11685     11687     11690
     11688     11687     11689     11688     11687     11690     11689     11687     11690
     11687     11690     11691     11690     11691     11692     11690     11691     11712
     11690     11691     11713     11692     11691     11712     11692     11691     11713
     11712     11691     11713     11691     11692     11693     11692     11693     11694
     11692     11693     11695     11692     11693     11696     11694     11693     11695
     11694     11693     11696     11695     11693     11696     11693     11696     11697
     11693     11696     11698     11693     11696     11699     11697     11696     11698
     11697     11696     11699     11698     11696     11699     11696     11699     11700
     11696     11699     11704     11696     11699     11708     11700     11699     11704
     11700     11699     11708     11704     11699     11708     11699     11700     11701
     11699     11700     11702     11699     11700     11703     11701     11700     11702
     11701     11700     11703     11702     11700     11703     11699     11704     11705
     11699     11704     11706     11699     11704     11707     11705     11704     11706
     11705     11704     11707     11706     11704     11707     11699     11708     11709
     11699     11708     11710     11699     11708     11711     11709     11708     11710
     11709     11708     11711     11710     11708     11711     11685     11714     11715
     11717     11715     11714     11717     11715     11716     11714     11715     11716
     11715     11717     11718     11715     11717     11719     11715     11717     11720
     11718     11717     11719     11718     11717     11720     11719     11717     11720
     11717     11720     11721     11717     11720     11722     11717     11720     11723
     11721     11720     11722     11721     11720     11723     11722     11720     11723
     11720     11723     11724     11720     11723     11725     11720     11723     11726
     11724     11723     11725     11724     11723     11726     11725     11723     11726
     11723     11726     11727     11723     11726     11728     11723     11726     11729
     11727     11726     11728     11727     11726     11729     11728     11726     11729
     11726     11729     11730     11726     11729     11731     11726     11729     11732
     11730     11729     11731     11730     11729     11732     11731     11729     11732
     11729     11732     11733     11729     11732     11734     11729     11732     11735
     11733     11732     11734     11733     11732     11735     11734     11732     11735
     11732     11735     11736     11732     11735     11737     11732     11735     11738
     11736     11735     11737     11736     11735     11738     11737     11735     11738
     11735     11738     11739     11735     11738     11740     11739     11738     11740
     11738     11740     11741     11738     11740     11742     11741     11740     11742
     11740     11742     11743     11740     11742     11744     11740     11742     11745
     11743     11742     11744     11743     11742     11745     11744     11742     11745
     11742     11745     11746     11742     11745     11747     11742     11745     11748
     11746     11745     11747     11746     11745     11748     11747     11745     11748
     11745     11748     11749     11745     11748     11750     11745     11748     11751
     11749     11748     11750     11749     11748     11751     11750     11748     11751
     11748     11751     11752     11748     11751     11753     11748     11751     11754
     11752     11751     11753     11752     11751     11754     11753     11751     11754
     11751     11754     11755     11751     11754     11756     11751     11754     11757
     11755     11754     11756     11755     11754     11757     11756     11754     11757
     11754     11757     11758     11754     11757     11759     11754     11757     11760
     11758     11757     11759     11758     11757     11760     11759     11757     11760
     11757     11760     11761     11757     11760     11762     11757     11760     11763
     11761     11760     11762     11761     11760     11763     11762     11760     11763
     11760     11763     11764     11760     11763     11765     11760     11763     11766
     11764     11763     11765     11764     11763     11766     11765     11763     11766
     11768     11767     11769     11768     11767     11770     11768     11767     11771
     11769     11767     11770     11769     11767     11771     11770     11767     11771
     11767     11771     11772     11767     11771     11773     11767     11771     11774
     11772     11771     11773     11772     11771     11774     11773     11771     11774
     11771     11774     11775     11771     11774     11776     11771     11774     11777
     11775     11774     11776     11775     11774     11777     11776     11774     11777
     11774     11777     11778     11774     11777     11779     11774     11777     11780
     11778     11777     11779     11778     11777     11780     11779     11777     11780
     11777     11780     11781     11777     11780     11782     11777     11780     11783
     11781     11780     11782     11781     11780     11783     11782     11780     11783
     11780     11783     11784     11780     11783     11785     11780     11783     11786
     11784     11783     11785     11784     11783     11786     11785     11783     11786
     11783     11786     11787     11783     11786     11788     11783     11786     11789
     11787     11786     11788     11787     11786     11789     11788     11786     11789
     11786     11789     11790     11786     11789     11791     11786     11789     11792
     11790     11789     11791     11790     11789     11792     11791     11789     11792
     11789     11792     11793     11789     11792     11794     11789     11792     11795
     11793     11792     11794     11793     11792     11795     11794     11792     11795
     11792     11795     11796     11792     11795     11797     11792     11795     11798
     11796     11795     11797     11796     11795     11798     11797     11795     11798
     11795     11798     11799     11795     11798     11800     11795     11798     11801
     11799     11798     11800     11799     11798     11801     11800     11798     11801
     11798     11801     11802     11798     11801     11803     11798     11801     11804
     11802     11801     11803     11802     11801     11804     11803     11801     11804
     11801     11804     11805     11801     11804     11806     11801     11804     11807
     11805     11804     11806     11805     11804     11807     11806     11804     11807
     11804     11807     11808     11804     11807     11809     11804     11807     11810
     11808     11807     11809     11808     11807     11810     11809     11807     11810
     11813     11810     11807     11813     11810     11811     11813     11810     11812
     11807     11810     11811     11807     11810     11812     11811     11810     11812
     11810     11813     11814     11810     11813     11815     11814     11813     11815
     11813     11815     11816     11815     11816     11817     11815     11816     11818
     11815     11816     11819     11817     11816     11818     11817     11816     11819
     11818     11816     11819     11816     11819     11820     11816     11819     11821
     11816     11819     11848     11820     11819     11821     11820     11819     11848
     11821     11819     11848     11819     11821     11822     11819     11821     11823
     11819     11821     11824     11822     11821     11823     11822     11821     11824
     11823     11821     11824     11821     11824     11825     11824     11825     11826
     11824     11825     11846     11824     11825     11847     11826     11825     11846
     11826     11825     11847     11846     11825     11847     11825     11826     11827
     11826     11827     11828     11826     11827     11829     11826     11827     11830
     11828     11827     11829     11828     11827     11830     11829     11827     11830
     11827     11830     11831     11827     11830     11832     11827     11830     11833
     11831     11830     11832     11831     11830     11833     11832     11830     11833
     11830     11833     11834     11830     11833     11838     11830     11833     11842
     11834     11833     11838     11834     11833     11842     11838     11833     11842
     11833     11834     11835     11833     11834     11836     11833     11834     11837
     11835     11834     11836     11835     11834     11837     11836     11834     11837
     11833     11838     11839     11833     11838     11840     11833     11838     11841
     11839     11838     11840     11839     11838     11841     11840     11838     11841
     11833     11842     11843     11833     11842     11844     11833     11842     11845
     11843     11842     11844     11843     11842     11845     11844     11842     11845
     11819     11848     11849     11851     11849     11848     11851     11849     11850
     11848     11849     11850     11849     11851     11852     11849     11851     11853
     11849     11851     11854     11852     11851     11853     11852     11851     11854
     11853     11851     11854     11851     11854     11855     11851     11854     11856
     11851     11854     11857     11855     11854     11856     11855     11854     11857
     11856     11854     11857     11854     11857     11858     11854     11857     11859
     11854     11857     11860     11858     11857     11859     11858     11857     11860
     11859     11857     11860     11857     11860     11861     11857     11860     11862
     11857     11860     11863     11861     11860     11862     11861     11860     11863
     11862     11860     11863     11860     11863     11864     11860     11863     11865
     11860     11863     11866     11864     11863     11865     11864     11863     11866
     11865     11863     11866     11863     11866     11867     11863     11866     11868
     11863     11866     11869     11867     11866     11868     11867     11866     11869
     11868     11866     11869     11866     11869     11870     11866     11869     11871
     11866     11869     11872     11870     11869     11871     11870     11869     11872
     11871     11869     11872     11869     11872     11873     11869     11872     11874
     11873     11872     11874     11872     11874     11875     11872     11874     11876
     11875     11874     11876     11874     11876     11877     11874     11876     11878
     11874     11876     11879     11877     11876     11878     11877     11876     11879
     11878     11876     11879     11876     11879     11880     11876     11879     11881
     11876     11879     11882     11880     11879     11881     11880     11879     11882
     11881     11879     11882     11879     11882     11883     11879     11882     11884
     11879     11882     11885     11883     11882     11884     11883     11882     11885
     11884     11882     11885     11882     11885     11886     11882     11885     11887
     11882     11885     11888     11886     11885     11887     11886     11885     11888
     11887     11885     11888     11885     11888     11889     11885     11888     11890
     11885     11888     11891     11889     11888     11890     11889     11888     11891
     11890     11888     11891     11888     11891     11892     11888     11891     11893
     11888     11891     11894     11892     11891     11893     11892     11891     11894
     11893     11891     11894     11891     11894     11895     11891     11894     11896
     11891     11894     11897     11895     11894     11896     11895     11894     11897
     11896     11894     11897     11894     11897     11898     11894     11897     11899
     11894     11897     11900     11898     11897     11899     11898     11897     11900
     11899     11897     11900

     31624 !NPHI: dihedrals
         2         1         5         6         2         1         5         7
         2         1         5        23         3         1         5         6
         3         1         5         7         3         1         5        23
         4         1         5         6         4         1         5         7
         4         1         5        23         1         5         7         8
         1         5         7         9         1         5         7        10
         1         5        23        25         1         5        23        24
         6         5         7         8         6         5         7         9
         6         5         7        10         6         5        23        25
         6         5        23        24         8         7         5        23
         9         7         5        23        10         7         5        23
         7         5        23        25         7         5        23        24
         5         7        10        11         5         7        10        12
         5         7        10        13         8         7        10        11
         8         7        10        12         8         7        10        13
         9         7        10        11         9         7        10        12
         9         7        10        13         7        10        13        14
         7        10        13        15         7        10        13        16
        11        10        13        14        11        10        13        15
        11        10        13        16        12        10        13        14
        12        10        13        15        12        10        13        16
        10        13        16        17        10        13        16        18
        10        13        16        19        14        13        16        17
        14        13        16        18        14        13        16        19
        15        13        16        17        15        13        16        18
        15        13        16        19        13        16        19        20
        13        16        19        21        13        16        19        22
        17        16        19        20        17        16        19        21
        17        16        19        22        18        16        19        20
        18        16        19        21        18        16        19        22
        26        25        23         5        27        25        23         5
        26        25        23        24        27        25        23        24
        23        25        27        28        23        25        27        29
        23        25        27        30        26        25        27        28
        26        25        27        29        26        25        27        30
        25        27        30        32        25        27        30        31
        28        27        30        32        28        27        30        31
        29        27        30        32        29        27        30        31
        33        32        30        27        42        32        30        27
        33        32        30        31        42        32        30        31
        30        32        33        34        30        32        33        35
        30        32        33        36        30        32        42        39
        30        32        42        43        30        32        42        44
        34        33        32        42        35        33        32        42
        36        33        32        42        33        32        42        39
        33        32        42        43        33        32        42        44
        32        33        36        37        32        33        36        38
        32        33        36        39        34        33        36        37
        34        33        36        38        34        33        36        39
        35        33        36        37        35        33        36        38
        35        33        36        39        33        36        39        40
        33        36        39        41        33        36        39        42
        37        36        39        40        37        36        39        41
        37        36        39        42        38        36        39        40
        38        36        39        41        38        36        39        42
        36        39        42        32        36        39        42        43
        36        39        42        44        40        39        42        32
        40        39        42        43        40        39        42        44
        41        39        42        32        41        39        42        43
        41        39        42        44        32        42        44        46
        32        42        44        45        39        42        44        46
        39        42        44        45        43        42        44        46
        43        42        44        45        47        46        44        42
        56        46        44        42        47        46        44        45
        56        46        44        45        44        46        47        48
        44        46        47        49        44        46        47        50
        44        46        56        53        44        46        56        57
        44        46        56        58        48        47        46        56
        49        47        46        56        50        47        46        56
        47        46        56        53        47        46        56        57
        47        46        56        58        46        47        50        51
        46        47        50        52        46        47        50        53
        48        47        50        51        48        47        50        52
        48        47        50        53        49        47        50        51
        49        47        50        52        49        47        50        53
        47        50        53        54        47        50        53        55
        47        50        53        56        51        50        53        54
        51        50        53        55        51        50        53        56
        52        50        53        54        52        50        53        55
        52        50        53        56        50        53        56        46
        50        53        56        57        50        53        56        58
        54        53        56        46        54        53        56        57
        54        53        56        58        55        53        56        46
        55        53        56        57        55        53        56        58
        46        56        58        60        46        56        58        59
        53        56        58        60        53        56        58        59
        57        56        58        60        57        56        58        59
        61        60        58        56        62        60        58        56
        61        60        58        59        62        60        58        59
        58        60        62        63        58        60        62        64
        58        60        62        82        61        60        62        63
        61        60        62        64        61        60        62        82
        60        62        64        65        60        62        64        66
        60        62        64        67        60        62        82        84
        60        62        82        83        63        62        64        65
        63        62        64        66        63        62        64        67
        63        62        82        84        63        62        82        83
        65        64        62        82        66        64        62        82
        67        64        62        82        64        62        82        84
        64        62        82        83        62        64        67        68
        62        64        67        69        62        64        67        70
        65        64        67        68        65        64        67        69
        65        64        67        70        66        64        67        68
        66        64        67        69        66        64        67        70
        64        67        70        71        64        67        70        72
        64        67        70        73        68        67        70        71
        68        67        70        72        68        67        70        73
        69        67        70        71        69        67        70        72
        69        67        70        73        67        70        73        74
        67        70        73        75        71        70        73        74
        71        70        73        75        72        70        73        74
        72        70        73        75        70        73        75        76
        70        73        75        79        74        73        75        76
        74        73        75        79        73        75        76        77
        73        75        76        78        73        75        79        80
        73        75        79        81        77        76        75        79
        78        76        75        79        76        75        79        80
        76        75        79        81        85        84        82        62
        86        84        82        62        85        84        82        83
        86        84        82        83        82        84        86        87
        82        84        86        88        82        84        86       106
        85        84        86        87        85        84        86        88
        85        84        86       106        84        86        88        89
        84        86        88        90        84        86        88        91
        84        86       106       107        84        86       106       108
        87        86        88        89        87        86        88        90
        87        86        88        91        87        86       106       107
        87        86       106       108        89        88        86       106
        90        88        86       106        91        88        86       106
        88        86       106       107        88        86       106       108
        86        88        91        92        86        88        91        93
        86        88        91        94        89        88        91        92
        89        88        91        93        89        88        91        94
        90        88        91        92        90        88        91        93
        90        88        91        94        88        91        94        95
        88        91        94        96        88        91        94        97
        92        91        94        95        92        91        94        96
        92        91        94        97        93        91        94        95
        93        91        94        96        93        91        94        97
        91        94        97        98        91        94        97        99
        95        94        97        98        95        94        97        99
        96        94        97        98        96        94        97        99
        94        97        99       100        94        97        99       103
        98        97        99       100        98        97        99       103
        97        99       100       101        97        99       100       102
        97        99       103       104        97        99       103       105
       101       100        99       103       102       100        99       103
       100        99       103       104       100        99       103       105
       110       109       113       114       110       109       113       115
       110       109       113       116       111       109       113       114
       111       109       113       115       111       109       113       116
       112       109       113       114       112       109       113       115
       112       109       113       116       109       113       116       117
       109       113       116       118       109       113       116       119
       114       113       116       117       114       113       116       118
       114       113       116       119       115       113       116       117
       115       113       116       118       115       113       116       119
       113       116       119       120       113       116       119       121
       113       116       119       122       117       116       119       120
       117       116       119       121       117       116       119       122
       118       116       119       120       118       116       119       121
       118       116       119       122       116       119       122       123
       116       119       122       124       116       119       122       125
       120       119       122       123       120       119       122       124
       120       119       122       125       121       119       122       123
       121       119       122       124       121       119       122       125
       119       122       125       126       119       122       125       127
       119       122       125       128       123       122       125       126
       123       122       125       127       123       122       125       128
       124       122       125       126       124       122       125       127
       124       122       125       128       122       125       128       129
       122       125       128       130       122       125       128       131
       126       125       128       129       126       125       128       130
       126       125       128       131       127       125       128       129
       127       125       128       130       127       125       128       131
       125       128       131       132       125       128       131       133
       125       128       131       134       129       128       131       132
       129       128       131       133       129       128       131       134
       130       128       131       132       130       128       131       133
       130       128       131       134       128       131       134       135
       128       131       134       136       128       131       134       137
       132       131       134       135       132       131       134       136
       132       131       134       137       133       131       134       135
       133       131       134       136       133       131       134       137
       131       134       137       138       131       134       137       139
       131       134       137       140       135       134       137       138
       135       134       137       139       135       134       137       140
       136       134       137       138       136       134       137       139
       136       134       137       140       134       137       140       141
       134       137       140       142       134       137       140       143
       138       137       140       141       138       137       140       142
       138       137       140       143       139       137       140       141
       139       137       140       142       139       137       140       143
       137       140       143       144       137       140       143       145
       137       140       143       146       141       140       143       144
       141       140       143       145       141       140       143       146
       142       140       143       144       142       140       143       145
       142       140       143       146       140       143       146       147
       140       143       146       148       140       143       146       149
       144       143       146       147       144       143       146       148
       144       143       146       149       145       143       146       147
       145       143       146       148       145       143       146       149
       143       146       149       150       143       146       149       151
       143       146       149       152       147       146       149       150
       147       146       149       151       147       146       149       152
       148       146       149       150       148       146       149       151
       148       146       149       152       146       149       152       155
       146       149       152       153       146       149       152       154
       150       149       152       155       150       149       152       153
       150       149       152       154       151       149       152       155
       151       149       152       153       151       149       152       154
       156       155       152       149       157       155       152       149
       156       155       152       153       157       155       152       153
       156       155       152       154       157       155       152       154
       152       155       157       158       156       155       157       158
       155       157       158       159       155       157       158       160
       155       157       158       161       157       158       161       162
       157       158       161       163       157       158       161       190
       159       158       161       162       159       158       161       163
       159       158       161       190       160       158       161       162
       160       158       161       163       160       158       161       190
       158       161       163       164       158       161       163       165
       158       161       163       166       158       161       190       191
       162       161       163       164       162       161       163       165
       162       161       163       166       162       161       190       191
       164       163       161       190       165       163       161       190
       166       163       161       190       163       161       190       191
       161       163       166       167       164       163       166       167
       165       163       166       167       163       166       167       168
       163       166       167       188       163       166       167       189
       166       167       168       169       169       168       167       188
       169       168       167       189       167       168       169       170
       167       168       169       171       167       168       169       172
       168       169       172       173       168       169       172       174
       168       169       172       175       170       169       172       173
       170       169       172       174       170       169       172       175
       171       169       172       173       171       169       172       174
       171       169       172       175       169       172       175       176
       169       172       175       180       169       172       175       184
       173       172       175       176       173       172       175       180
       173       172       175       184       174       172       175       176
       174       172       175       180       174       172       175       184
       172       175       176       177       172       175       176       178
       172       175       176       179       172       175       180       181
       172       175       180       182       172       175       180       183
       172       175       184       185       172       175       184       186
       172       175       184       187       177       176       175       180
       178       176       175       180       179       176       175       180
       176       175       180       181       176       175       180       182
       176       175       180       183       177       176       175       184
       178       176       175       184       179       176       175       184
       176       175       184       185       176       175       184       186
       176       175       184       187       181       180       175       184
       182       180       175       184       183       180       175       184
       180       175       184       185       180       175       184       186
       180       175       184       187       161       190       191       193
       161       190       191       192       194       193       191       190
       195       193       191       190       196       193       191       190
       194       193       191       192       195       193       191       192
       196       193       191       192       191       193       196       197
       191       193       196       198       191       193       196       199
       194       193       196       197       194       193       196       198
       194       193       196       199       195       193       196       197
       195       193       196       198       195       193       196       199
       193       196       199       200       193       196       199       201
       193       196       199       202       197       196       199       200
       197       196       199       201       197       196       199       202
       198       196       199       200       198       196       199       201
       198       196       199       202       196       199       202       203
       196       199       202       204       196       199       202       205
       200       199       202       203       200       199       202       204
       200       199       202       205       201       199       202       203
       201       199       202       204       201       199       202       205
       199       202       205       206       199       202       205       207
       199       202       205       208       203       202       205       206
       203       202       205       207       203       202       205       208
       204       202       205       206       204       202       205       207
       204       202       205       208       202       205       208       209
       202       205       208       210       202       205       208       211
       206       205       208       209       206       205       208       210
       206       205       208       211       207       205       208       209
       207       205       208       210       207       205       208       211
       205       208       211       212       205       208       211       213
       205       208       211       214       209       208       211       212
       209       208       211       213       209       208       211       214
       210       208       211       212       210       208       211       213
       210       208       211       214       208       211       214       215
       208       211       214       216       212       211       214       215
       212       211       214       216       213       211       214       215
       213       211       214       216       211       214       216       217
       211       214       216       218       215       214       216       217
       215       214       216       218       214       216       218       219
       214       216       218       220       214       216       218       221
       217       216       218       219       217       216       218       220
       217       216       218       221       216       218       221       222
       216       218       221       223       216       218       221       224
       219       218       221       222       219       218       221       223
       219       218       221       224       220       218       221       222
       220       218       221       223       220       218       221       224
       218       221       224       225       218       221       224       226
       218       221       224       227       222       221       224       225
       222       221       224       226       222       221       224       227
       223       221       224       225       223       221       224       226
       223       221       224       227       221       224       227       228
       221       224       227       229       221       224       227       230
       225       224       227       228       225       224       227       229
       225       224       227       230       226       224       227       228
       226       224       227       229       226       224       227       230
       224       227       230       231       224       227       230       232
       224       227       230       233       228       227       230       231
       228       227       230       232       228       227       230       233
       229       227       230       231       229       227       230       232
       229       227       230       233       227       230       233       234
       227       230       233       235       227       230       233       236
       231       230       233       234       231       230       233       235
       231       230       233       236       232       230       233       234
       232       230       233       235       232       230       233       236
       230       233       236       237       230       233       236       238
       230       233       236       239       234       233       236       237
       234       233       236       238       234       233       236       239
       235       233       236       237       235       233       236       238
       235       233       236       239       233       236       239       240
       233       236       239       241       233       236       239       242
       237       236       239       240       237       236       239       241
       237       236       239       242       238       236       239       240
       238       236       239       241       238       236       239       242
       244       243       247       248       244       243       247       249
       244       243       247       250       245       243       247       248
       245       243       247       249       245       243       247       250
       246       243       247       248       246       243       247       249
       246       243       247       250       243       247       250       251
       243       247       250       252       243       247       250       253
       248       247       250       251       248       247       250       252
       248       247       250       253       249       247       250       251
       249       247       250       252       249       247       250       253
       247       250       253       254       247       250       253       255
       247       250       253       256       251       250       253       254
       251       250       253       255       251       250       253       256
       252       250       253       254       252       250       253       255
       252       250       253       256       250       253       256       257
       250       253       256       258       250       253       256       259
       254       253       256       257       254       253       256       258
       254       253       256       259       255       253       256       257
       255       253       256       258       255       253       256       259
       253       256       259       260       253       256       259       261
       253       256       259       262       257       256       259       260
       257       256       259       261       257       256       259       262
       258       256       259       260       258       256       259       261
       258       256       259       262       256       259       262       263
       256       259       262       264       256       259       262       265
       260       259       262       263       260       259       262       264
       260       259       262       265       261       259       262       263
       261       259       262       264       261       259       262       265
       259       262       265       266       259       262       265       267
       259       262       265       268       263       262       265       266
       263       262       265       267       263       262       265       268
       264       262       265       266       264       262       265       267
       264       262       265       268       262       265       268       269
       262       265       268       270       262       265       268       271
       266       265       268       269       266       265       268       270
       266       265       268       271       267       265       268       269
       267       265       268       270       267       265       268       271
       265       268       271       272       265       268       271       273
       265       268       271       274       269       268       271       272
       269       268       271       273       269       268       271       274
       270       268       271       272       270       268       271       273
       270       268       271       274       268       271       274       275
       268       271       274       276       268       271       274       277
       272       271       274       275       272       271       274       276
       272       271       274       277       273       271       274       275
       273       271       274       276       273       271       274       277
       271       274       277       278       271       274       277       279
       271       274       277       280       275       274       277       278
       275       274       277       279       275       274       277       280
       276       274       277       278       276       274       277       279
       276       274       277       280       274       277       280       281
       274       277       280       282       274       277       280       283
       278       277       280       281       278       277       280       282
       278       277       280       283       279       277       280       281
       279       277       280       282       279       277       280       283
       277       280       283       284       277       280       283       285
       277       280       283       286       281       280       283       284
       281       280       283       285       281       280       283       286
       282       280       283       284       282       280       283       285
       282       280       283       286       280       283       286       289
       280       283       286       287       280       283       286       288
       284       283       286       289       284       283       286       287
       284       283       286       288       285       283       286       289
       285       283       286       287       285       283       286       288
       290       289       286       283       291       289       286       283
       290       289       286       287       291       289       286       287
       290       289       286       288       291       289       286       288
       286       289       291       292       290       289       291       292
       289       291       292       293       289       291       292       294
       289       291       292       295       291       292       295       296
       291       292       295       297       291       292       295       324
       293       292       295       296       293       292       295       297
       293       292       295       324       294       292       295       296
       294       292       295       297       294       292       295       324
       292       295       297       298       292       295       297       299
       292       295       297       300       292       295       324       325
       296       295       297       298       296       295       297       299
       296       295       297       300       296       295       324       325
       298       297       295       324       299       297       295       324
       300       297       295       324       297       295       324       325
       295       297       300       301       298       297       300       301
       299       297       300       301       297       300       301       302
       297       300       301       322       297       300       301       323
       300       301       302       303       303       302       301       322
       303       302       301       323       301       302       303       304
       301       302       303       305       301       302       303       306
       302       303       306       307       302       303       306       308
       302       303       306       309       304       303       306       307
       304       303       306       308       304       303       306       309
       305       303       306       307       305       303       306       308
       305       303       306       309       303       306       309       310
       303       306       309       314       303       306       309       318
       307       306       309       310       307       306       309       314
       307       306       309       318       308       306       309       310
       308       306       309       314       308       306       309       318
       306       309       310       311       306       309       310       312
       306       309       310       313       306       309       314       315
       306       309       314       316       306       309       314       317
       306       309       318       319       306       309       318       320
       306       309       318       321       311       310       309       314
       312       310       309       314       313       310       309       314
       310       309       314       315       310       309       314       316
       310       309       314       317       311       310       309       318
       312       310       309       318       313       310       309       318
       310       309       318       319       310       309       318       320
       310       309       318       321       315       314       309       318
       316       314       309       318       317       314       309       318
       314       309       318       319       314       309       318       320
       314       309       318       321       295       324       325       327
       295       324       325       326       328       327       325       324
       329       327       325       324       330       327       325       324
       328       327       325       326       329       327       325       326
       330       327       325       326       325       327       330       331
       325       327       330       332       325       327       330       333
       328       327       330       331       328       327       330       332
       328       327       330       333       329       327       330       331
       329       327       330       332       329       327       330       333
       327       330       333       334       327       330       333       335
       327       330       333       336       331       330       333       334
       331       330       333       335       331       330       333       336
       332       330       333       334       332       330       333       335
       332       330       333       336       330       333       336       337
       330       333       336       338       330       333       336       339
       334       333       336       337       334       333       336       338
       334       333       336       339       335       333       336       337
       335       333       336       338       335       333       336       339
       333       336       339       340       333       336       339       341
       333       336       339       342       337       336       339       340
       337       336       339       341       337       336       339       342
       338       336       339       340       338       336       339       341
       338       336       339       342       336       339       342       343
       336       339       342       344       336       339       342       345
       340       339       342       343       340       339       342       344
       340       339       342       345       341       339       342       343
       341       339       342       344       341       339       342       345
       339       342       345       346       339       342       345       347
       339       342       345       348       343       342       345       346
       343       342       345       347       343       342       345       348
       344       342       345       346       344       342       345       347
       344       342       345       348       342       345       348       349
       342       345       348       350       346       345       348       349
       346       345       348       350       347       345       348       349
       347       345       348       350       345       348       350       351
       345       348       350       352       349       348       350       351
       349       348       350       352       348       350       352       353
       348       350       352       354       348       350       352       355
       351       350       352       353       351       350       352       354
       351       350       352       355       350       352       355       356
       350       352       355       357       350       352       355       358
       353       352       355       356       353       352       355       357
       353       352       355       358       354       352       355       356
       354       352       355       357       354       352       355       358
       352       355       358       359       352       355       358       360
       352       355       358       361       356       355       358       359
       356       355       358       360       356       355       358       361
       357       355       358       359       357       355       358       360
       357       355       358       361       355       358       361       362
       355       358       361       363       355       358       361       364
       359       358       361       362       359       358       361       363
       359       358       361       364       360       358       361       362
       360       358       361       363       360       358       361       364
       358       361       364       365       358       361       364       366
       358       361       364       367       362       361       364       365
       362       361       364       366       362       361       364       367
       363       361       364       365       363       361       364       366
       363       361       364       367       361       364       367       368
       361       364       367       369       361       364       367       370
       365       364       367       368       365       364       367       369
       365       364       367       370       366       364       367       368
       366       364       367       369       366       364       367       370
       364       367       370       371       364       367       370       372
       364       367       370       373       368       367       370       371
       368       367       370       372       368       367       370       373
       369       367       370       371       369       367       370       372
       369       367       370       373       367       370       373       374
       367       370       373       375       367       370       373       376
       371       370       373       374       371       370       373       375
       371       370       373       376       372       370       373       374
       372       370       373       375       372       370       373       376
       378       377       381       382       378       377       381       383
       378       377       381       384       379       377       381       382
       379       377       381       383       379       377       381       384
       380       377       381       382       380       377       381       383
       380       377       381       384       377       381       384       385
       377       381       384       386       377       381       384       387
       382       381       384       385       382       381       384       386
       382       381       384       387       383       381       384       385
       383       381       384       386       383       381       384       387
       381       384       387       388       381       384       387       389
       381       384       387       390       385       384       387       388
       385       384       387       389       385       384       387       390
       386       384       387       388       386       384       387       389
       386       384       387       390       384       387       390       391
       384       387       390       392       384       387       390       393
       388       387       390       391       388       387       390       392
       388       387       390       393       389       387       390       391
       389       387       390       392       389       387       390       393
       387       390       393       394       387       390       393       395
       387       390       393       396       391       390       393       394
       391       390       393       395       391       390       393       396
       392       390       393       394       392       390       393       395
       392       390       393       396       390       393       396       397
       390       393       396       398       390       393       396       399
       394       393       396       397       394       393       396       398
       394       393       396       399       395       393       396       397
       395       393       396       398       395       393       396       399
       393       396       399       400       393       396       399       401
       393       396       399       402       397       396       399       400
       397       396       399       401       397       396       399       402
       398       396       399       400       398       396       399       401
       398       396       399       402       396       399       402       403
       396       399       402       404       396       399       402       405
       400       399       402       403       400       399       402       404
       400       399       402       405       401       399       402       403
       401       399       402       404       401       399       402       405
       399       402       405       406       399       402       405       407
       399       402       405       408       403       402       405       406
       403       402       405       407       403       402       405       408
       404       402       405       406       404       402       405       407
       404       402       405       408       402       405       408       409
       402       405       408       410       402       405       408       411
       406       405       408       409       406       405       408       410
       406       405       408       411       407       405       408       409
       407       405       408       410       407       405       408       411
       405       408       411       412       405       408       411       413
       405       408       411       414       409       408       411       412
       409       408       411       413       409       408       411       414
       410       408       411       412       410       408       411       413
       410       408       411       414       408       411       414       415
       408       411       414       416       408       411       414       417
       412       411       414       415       412       411       414       416
       412       411       414       417       413       411       414       415
       413       411       414       416       413       411       414       417
       411       414       417       418       411       414       417       419
       411       414       417       420       415       414       417       418
       415       414       417       419       415       414       417       420
       416       414       417       418       416       414       417       419
       416       414       417       420       414       417       420       423
       414       417       420       421       414       417       420       422
       418       417       420       423       418       417       420       421
       418       417       420       422       419       417       420       423
       419       417       420       421       419       417       420       422
       424       423       420       417       425       423       420       417
       424       423       420       421       425       423       420       421
       424       423       420       422       425       423       420       422
       420       423       425       426       424       423       425       426
       423       425       426       427       423       425       426       428
       423       425       426       429       425       426       429       430
       425       426       429       431       425       426       429       458
       427       426       429       430       427       426       429       431
       427       426       429       458       428       426       429       430
       428       426       429       431       428       426       429       458
       426       429       431       432       426       429       431       433
       426       429       431       434       426       429       458       459
       430       429       431       432       430       429       431       433
       430       429       431       434       430       429       458       459
       432       431       429       458       433       431       429       458
       434       431       429       458       431       429       458       459
       429       431       434       435       432       431       434       435
       433       431       434       435       431       434       435       436
       431       434       435       456       431       434       435       457
       434       435       436       437       437       436       435       456
       437       436       435       457       435       436       437       438
       435       436       437       439       435       436       437       440
       436       437       440       441       436       437       440       442
       436       437       440       443       438       437       440       441
       438       437       440       442       438       437       440       443
       439       437       440       441       439       437       440       442
       439       437       440       443       437       440       443       444
       437       440       443       448       437       440       443       452
       441       440       443       444       441       440       443       448
       441       440       443       452       442       440       443       444
       442       440       443       448       442       440       443       452
       440       443       444       445       440       443       444       446
       440       443       444       447       440       443       448       449
       440       443       448       450       440       443       448       451
       440       443       452       453       440       443       452       454
       440       443       452       455       445       444       443       448
       446       444       443       448       447       444       443       448
       444       443       448       449       444       443       448       450
       444       443       448       451       445       444       443       452
       446       444       443       452       447       444       443       452
       444       443       452       453       444       443       452       454
       444       443       452       455       449       448       443       452
       450       448       443       452       451       448       443       452
       448       443       452       453       448       443       452       454
       448       443       452       455       429       458       459       461
       429       458       459       460       462       461       459       458
       463       461       459       458       464       461       459       458
       462       461       459       460       463       461       459       460
       464       461       459       460       459       461       464       465
       459       461       464       466       459       461       464       467
       462       461       464       465       462       461       464       466
       462       461       464       467       463       461       464       465
       463       461       464       466       463       461       464       467
       461       464       467       468       461       464       467       469
       461       464       467       470       465       464       467       468
       465       464       467       469       465       464       467       470
       466       464       467       468       466       464       467       469
       466       464       467       470       464       467       470       471
       464       467       470       472       464       467       470       473
       468       467       470       471       468       467       470       472
       468       467       470       473       469       467       470       471
       469       467       470       472       469       467       470       473
       467       470       473       474       467       470       473       475
       467       470       473       476       471       470       473       474
       471       470       473       475       471       470       473       476
       472       470       473       474       472       470       473       475
       472       470       473       476       470       473       476       477
       470       473       476       478       470       473       476       479
       474       473       476       477       474       473       476       478
       474       473       476       479       475       473       476       477
       475       473       476       478       475       473       476       479
       473       476       479       480       473       476       479       481
       473       476       479       482       477       476       479       480
       477       476       479       481       477       476       479       482
       478       476       479       480       478       476       479       481
       478       476       479       482       476       479       482       483
       476       479       482       484       480       479       482       483
       480       479       482       484       481       479       482       483
       481       479       482       484       479       482       484       485
       479       482       484       486       483       482       484       485
       483       482       484       486       482       484       486       487
       482       484       486       488       482       484       486       489
       485       484       486       487       485       484       486       488
       485       484       486       489       484       486       489       490
       484       486       489       491       484       486       489       492
       487       486       489       490       487       486       489       491
       487       486       489       492       488       486       489       490
       488       486       489       491       488       486       489       492
       486       489       492       493       486       489       492       494
       486       489       492       495       490       489       492       493
       490       489       492       494       490       489       492       495
       491       489       492       493       491       489       492       494
       491       489       492       495       489       492       495       496
       489       492       495       497       489       492       495       498
       493       492       495       496       493       492       495       497
       493       492       495       498       494       492       495       496
       494       492       495       497       494       492       495       498
       492       495       498       499       492       495       498       500
       492       495       498       501       496       495       498       499
       496       495       498       500       496       495       498       501
       497       495       498       499       497       495       498       500
       497       495       498       501       495       498       501       502
       495       498       501       503       495       498       501       504
       499       498       501       502       499       498       501       503
       499       498       501       504       500       498       501       502
       500       498       501       503       500       498       501       504
       498       501       504       505       498       501       504       506
       498       501       504       507       502       501       504       505
       502       501       504       506       502       501       504       507
       503       501       504       505       503       501       504       506
       503       501       504       507       501       504       507       508
       501       504       507       509       501       504       507       510
       505       504       507       508       505       504       507       509
       505       504       507       510       506       504       507       508
       506       504       507       509       506       504       507       510
       512       511       515       516       512       511       515       517
       512       511       515       518       513       511       515       516
       513       511       515       517       513       511       515       518
       514       511       515       516       514       511       515       517
       514       511       515       518       511       515       518       519
       511       515       518       520       511       515       518       521
       516       515       518       519       516       515       518       520
       516       515       518       521       517       515       518       519
       517       515       518       520       517       515       518       521
       515       518       521       522       515       518       521       523
       515       518       521       524       519       518       521       522
       519       518       521       523       519       518       521       524
       520       518       521       522       520       518       521       523
       520       518       521       524       518       521       524       525
       518       521       524       526       518       521       524       527
       522       521       524       525       522       521       524       526
       522       521       524       527       523       521       524       525
       523       521       524       526       523       521       524       527
       521       524       527       528       521       524       527       529
       521       524       527       530       525       524       527       528
       525       524       527       529       525       524       527       530
       526       524       527       528       526       524       527       529
       526       524       527       530       524       527       530       531
       524       527       530       532       524       527       530       533
       528       527       530       531       528       527       530       532
       528       527       530       533       529       527       530       531
       529       527       530       532       529       527       530       533
       527       530       533       534       527       530       533       535
       527       530       533       536       531       530       533       534
       531       530       533       535       531       530       533       536
       532       530       533       534       532       530       533       535
       532       530       533       536       530       533       536       537
       530       533       536       538       530       533       536       539
       534       533       536       537       534       533       536       538
       534       533       536       539       535       533       536       537
       535       533       536       538       535       533       536       539
       533       536       539       540       533       536       539       541
       533       536       539       542       537       536       539       540
       537       536       539       541       537       536       539       542
       538       536       539       540       538       536       539       541
       538       536       539       542       536       539       542       543
       536       539       542       544       536       539       542       545
       540       539       542       543       540       539       542       544
       540       539       542       545       541       539       542       543
       541       539       542       544       541       539       542       545
       539       542       545       546       539       542       545       547
       539       542       545       548       543       542       545       546
       543       542       545       547       543       542       545       548
       544       542       545       546       544       542       545       547
       544       542       545       548       542       545       548       549
       542       545       548       550       542       545       548       551
       546       545       548       549       546       545       548       550
       546       545       548       551       547       545       548       549
       547       545       548       550       547       545       548       551
       545       548       551       552       545       548       551       553
       545       548       551       554       549       548       551       552
       549       548       551       553       549       548       551       554
       550       548       551       552       550       548       551       553
       550       548       551       554       548       551       554       557
       548       551       554       555       548       551       554       556
       552       551       554       557       552       551       554       555
       552       551       554       556       553       551       554       557
       553       551       554       555       553       551       554       556
       558       557       554       551       559       557       554       551
       558       557       554       555       559       557       554       555
       558       557       554       556       559       557       554       556
       554       557       559       560       558       557       559       560
       557       559       560       561       557       559       560       562
       557       559       560       563       559       560       563       564
       559       560       563       565       559       560       563       592
       561       560       563       564       561       560       563       565
       561       560       563       592       562       560       563       564
       562       560       563       565       562       560       563       592
       560       563       565       566       560       563       565       567
       560       563       565       568       560       563       592       593
       564       563       565       566       564       563       565       567
       564       563       565       568       564       563       592       593
       566       565       563       592       567       565       563       592
       568       565       563       592       565       563       592       593
       563       565       568       569       566       565       568       569
       567       565       568       569       565       568       569       570
       565       568       569       590       565       568       569       591
       568       569       570       571       571       570       569       590
       571       570       569       591       569       570       571       572
       569       570       571       573       569       570       571       574
       570       571       574       575       570       571       574       576
       570       571       574       577       572       571       574       575
       572       571       574       576       572       571       574       577
       573       571       574       575       573       571       574       576
       573       571       574       577       571       574       577       578
       571       574       577       582       571       574       577       586
       575       574       577       578       575       574       577       582
       575       574       577       586       576       574       577       578
       576       574       577       582       576       574       577       586
       574       577       578       579       574       577       578       580
       574       577       578       581       574       577       582       583
       574       577       582       584       574       577       582       585
       574       577       586       587       574       577       586       588
       574       577       586       589       579       578       577       582
       580       578       577       582       581       578       577       582
       578       577       582       583       578       577       582       584
       578       577       582       585       579       578       577       586
       580       578       577       586       581       578       577       586
       578       577       586       587       578       577       586       588
       578       577       586       589       583       582       577       586
       584       582       577       586       585       582       577       586
       582       577       586       587       582       577       586       588
       582       577       586       589       563       592       593       595
       563       592       593       594       596       595       593       592
       597       595       593       592       598       595       593       592
       596       595       593       594       597       595       593       594
       598       595       593       594       593       595       598       599
       593       595       598       600       593       595       598       601
       596       595       598       599       596       595       598       600
       596       595       598       601       597       595       598       599
       597       595       598       600       597       595       598       601
       595       598       601       602       595       598       601       603
       595       598       601       604       599       598       601       602
       599       598       601       603       599       598       601       604
       600       598       601       602       600       598       601       603
       600       598       601       604       598       601       604       605
       598       601       604       606       598       601       604       607
       602       601       604       605       602       601       604       606
       602       601       604       607       603       601       604       605
       603       601       604       606       603       601       604       607
       601       604       607       608       601       604       607       609
       601       604       607       610       605       604       607       608
       605       604       607       609       605       604       607       610
       606       604       607       608       606       604       607       609
       606       604       607       610       604       607       610       611
       604       607       610       612       604       607       610       613
       608       607       610       611       608       607       610       612
       608       607       610       613       609       607       610       611
       609       607       610       612       609       607       610       613
       607       610       613       614       607       610       613       615
       607       610       613       616       611       610       613       614
       611       610       613       615       611       610       613       616
       612       610       613       614       612       610       613       615
       612       610       613       616       610       613       616       617
       610       613       616       618       614       613       616       617
       614       613       616       618       615       613       616       617
       615       613       616       618       613       616       618       619
       613       616       618       620       617       616       618       619
       617       616       618       620       616       618       620       621
       616       618       620       622       616       618       620       623
       619       618       620       621       619       618       620       622
       619       618       620       623       618       620       623       624
       618       620       623       625       618       620       623       626
       621       620       623       624       621       620       623       625
       621       620       623       626       622       620       623       624
       622       620       623       625       622       620       623       626
       620       623       626       627       620       623       626       628
       620       623       626       629       624       623       626       627
       624       623       626       628       624       623       626       629
       625       623       626       627       625       623       626       628
       625       623       626       629       623       626       629       630
       623       626       629       631       623       626       629       632
       627       626       629       630       627       626       629       631
       627       626       629       632       628       626       629       630
       628       626       629       631       628       626       629       632
       626       629       632       633       626       629       632       634
       626       629       632       635       630       629       632       633
       630       629       632       634       630       629       632       635
       631       629       632       633       631       629       632       634
       631       629       632       635       629       632       635       636
       629       632       635       637       629       632       635       638
       633       632       635       636       633       632       635       637
       633       632       635       638       634       632       635       636
       634       632       635       637       634       632       635       638
       632       635       638       639       632       635       638       640
       632       635       638       641       636       635       638       639
       636       635       638       640       636       635       638       641
       637       635       638       639       637       635       638       640
       637       635       638       641       635       638       641       642
       635       638       641       643       635       638       641       644
       639       638       641       642       639       638       641       643
       639       638       641       644       640       638       641       642
       640       638       641       643       640       638       641       644
       646       645       649       650       646       645       649       651
       646       645       649       652       647       645       649       650
       647       645       649       651       647       645       649       652
       648       645       649       650       648       645       649       651
       648       645       649       652       645       649       652       653
       645       649       652       654       645       649       652       655
       650       649       652       653       650       649       652       654
       650       649       652       655       651       649       652       653
       651       649       652       654       651       649       652       655
       649       652       655       656       649       652       655       657
       649       652       655       658       653       652       655       656
       653       652       655       657       653       652       655       658
       654       652       655       656       654       652       655       657
       654       652       655       658       652       655       658       659
       652       655       658       660       652       655       658       661
       656       655       658       659       656       655       658       660
       656       655       658       661       657       655       658       659
       657       655       658       660       657       655       658       661
       655       658       661       662       655       658       661       663
       655       658       661       664       659       658       661       662
       659       658       661       663       659       658       661       664
       660       658       661       662       660       658       661       663
       660       658       661       664       658       661       664       665
       658       661       664       666       658       661       664       667
       662       661       664       665       662       661       664       666
       662       661       664       667       663       661       664       665
       663       661       664       666       663       661       664       667
       661       664       667       668       661       664       667       669
       661       664       667       670       665       664       667       668
       665       664       667       669       665       664       667       670
       666       664       667       668       666       664       667       669
       666       664       667       670       664       667       670       671
       664       667       670       672       664       667       670       673
       668       667       670       671       668       667       670       672
       668       667       670       673       669       667       670       671
       669       667       670       672       669       667       670       673
       667       670       673       674       667       670       673       675
       667       670       673       676       671       670       673       674
       671       670       673       675       671       670       673       676
       672       670       673       674       672       670       673       675
       672       670       673       676       670       673       676       677
       670       673       676       678       670       673       676       679
       674       673       676       677       674       673       676       678
       674       673       676       679       675       673       676       677
       675       673       676       678       675       673       676       679
       673       676       679       680       673       676       679       681
       673       676       679       682       677       676       679       680
       677       676       679       681       677       676       679       682
       678       676       679       680       678       676       679       681
       678       676       679       682       676       679       682       683
       676       679       682       684       676       679       682       685
       680       679       682       683       680       679       682       684
       680       679       682       685       681       679       682       683
       681       679       682       684       681       679       682       685
       679       682       685       686       679       682       685       687
       679       682       685       688       683       682       685       686
       683       682       685       687       683       682       685       688
       684       682       685       686       684       682       685       687
       684       682       685       688       682       685       688       691
       682       685       688       689       682       685       688       690
       686       685       688       691       686       685       688       689
       686       685       688       690       687       685       688       691
       687       685       688       689       687       685       688       690
       692       691       688       685       693       691       688       685
       692       691       688       689       693       691       688       689
       692       691       688       690       693       691       688       690
       688       691       693       694       692       691       693       694
       691       693       694       695       691       693       694       696
       691       693       694       697       693       694       697       698
       693       694       697       699       693       694       697       726
       695       694       697       698       695       694       697       699
       695       694       697       726       696       694       697       698
       696       694       697       699       696       694       697       726
       694       697       699       700       694       697       699       701
       694       697       699       702       694       697       726       727
       698       697       699       700       698       697       699       701
       698       697       699       702       698       697       726       727
       700       699       697       726       701       699       697       726
       702       699       697       726       699       697       726       727
       697       699       702       703       700       699       702       703
       701       699       702       703       699       702       703       704
       699       702       703       724       699       702       703       725
       702       703       704       705       705       704       703       724
       705       704       703       725       703       704       705       706
       703       704       705       707       703       704       705       708
       704       705       708       709       704       705       708       710
       704       705       708       711       706       705       708       709
       706       705       708       710       706       705       708       711
       707       705       708       709       707       705       708       710
       707       705       708       711       705       708       711       712
       705       708       711       716       705       708       711       720
       709       708       711       712       709       708       711       716
       709       708       711       720       710       708       711       712
       710       708       711       716       710       708       711       720
       708       711       712       713       708       711       712       714
       708       711       712       715       708       711       716       717
       708       711       716       718       708       711       716       719
       708       711       720       721       708       711       720       722
       708       711       720       723       713       712       711       716
       714       712       711       716       715       712       711       716
       712       711       716       717       712       711       716       718
       712       711       716       719       713       712       711       720
       714       712       711       720       715       712       711       720
       712       711       720       721       712       711       720       722
       712       711       720       723       717       716       711       720
       718       716       711       720       719       716       711       720
       716       711       720       721       716       711       720       722
       716       711       720       723       697       726       727       729
       697       726       727       728       730       729       727       726
       731       729       727       726       732       729       727       726
       730       729       727       728       731       729       727       728
       732       729       727       728       727       729       732       733
       727       729       732       734       727       729       732       735
       730       729       732       733       730       729       732       734
       730       729       732       735       731       729       732       733
       731       729       732       734       731       729       732       735
       729       732       735       736       729       732       735       737
       729       732       735       738       733       732       735       736
       733       732       735       737       733       732       735       738
       734       732       735       736       734       732       735       737
       734       732       735       738       732       735       738       739
       732       735       738       740       732       735       738       741
       736       735       738       739       736       735       738       740
       736       735       738       741       737       735       738       739
       737       735       738       740       737       735       738       741
       735       738       741       742       735       738       741       743
       735       738       741       744       739       738       741       742
       739       738       741       743       739       738       741       744
       740       738       741       742       740       738       741       743
       740       738       741       744       738       741       744       745
       738       741       744       746       738       741       744       747
       742       741       744       745       742       741       744       746
       742       741       744       747       743       741       744       745
       743       741       744       746       743       741       744       747
       741       744       747       748       741       744       747       749
       741       744       747       750       745       744       747       748
       745       744       747       749       745       744       747       750
       746       744       747       748       746       744       747       749
       746       744       747       750       744       747       750       751
       744       747       750       752       748       747       750       751
       748       747       750       752       749       747       750       751
       749       747       750       752       747       750       752       753
       747       750       752       754       751       750       752       753
       751       750       752       754       750       752       754       755
       750       752       754       756       750       752       754       757
       753       752       754       755       753       752       754       756
       753       752       754       757       752       754       757       758
       752       754       757       759       752       754       757       760
       755       754       757       758       755       754       757       759
       755       754       757       760       756       754       757       758
       756       754       757       759       756       754       757       760
       754       757       760       761       754       757       760       762
       754       757       760       763       758       757       760       761
       758       757       760       762       758       757       760       763
       759       757       760       761       759       757       760       762
       759       757       760       763       757       760       763       764
       757       760       763       765       757       760       763       766
       761       760       763       764       761       760       763       765
       761       760       763       766       762       760       763       764
       762       760       763       765       762       760       763       766
       760       763       766       767       760       763       766       768
       760       763       766       769       764       763       766       767
       764       763       766       768       764       763       766       769
       765       763       766       767       765       763       766       768
       765       763       766       769       763       766       769       770
       763       766       769       771       763       766       769       772
       767       766       769       770       767       766       769       771
       767       766       769       772       768       766       769       770
       768       766       769       771       768       766       769       772
       766       769       772       773       766       769       772       774
       766       769       772       775       770       769       772       773
       770       769       772       774       770       769       772       775
       771       769       772       773       771       769       772       774
       771       769       772       775       769       772       775       776
       769       772       775       777       769       772       775       778
       773       772       775       776       773       772       775       777
       773       772       775       778       774       772       775       776
       774       772       775       777       774       772       775       778
       780       779       783       784       780       779       783       785
       780       779       783       786       781       779       783       784
       781       779       783       785       781       779       783       786
       782       779       783       784       782       779       783       785
       782       779       783       786       779       783       786       787
       779       783       786       788       779       783       786       789
       784       783       786       787       784       783       786       788
       784       783       786       789       785       783       786       787
       785       783       786       788       785       783       786       789
       783       786       789       790       783       786       789       791
       783       786       789       792       787       786       789       790
       787       786       789       791       787       786       789       792
       788       786       789       790       788       786       789       791
       788       786       789       792       786       789       792       793
       786       789       792       794       786       789       792       795
       790       789       792       793       790       789       792       794
       790       789       792       795       791       789       792       793
       791       789       792       794       791       789       792       795
       789       792       795       796       789       792       795       797
       789       792       795       798       793       792       795       796
       793       792       795       797       793       792       795       798
       794       792       795       796       794       792       795       797
       794       792       795       798       792       795       798       799
       792       795       798       800       792       795       798       801
       796       795       798       799       796       795       798       800
       796       795       798       801       797       795       798       799
       797       795       798       800       797       795       798       801
       795       798       801       802       795       798       801       803
       795       798       801       804       799       798       801       802
       799       798       801       803       799       798       801       804
       800       798       801       802       800       798       801       803
       800       798       801       804       798       801       804       805
       798       801       804       806       798       801       804       807
       802       801       804       805       802       801       804       806
       802       801       804       807       803       801       804       805
       803       801       804       806       803       801       804       807
       801       804       807       808       801       804       807       809
       801       804       807       810       805       804       807       808
       805       804       807       809       805       804       807       810
       806       804       807       808       806       804       807       809
       806       804       807       810       804       807       810       811
       804       807       810       812       804       807       810       813
       808       807       810       811       808       807       810       812
       808       807       810       813       809       807       810       811
       809       807       810       812       809       807       810       813
       807       810       813       814       807       810       813       815
       807       810       813       816       811       810       813       814
       811       810       813       815       811       810       813       816
       812       810       813       814       812       810       813       815
       812       810       813       816       810       813       816       817
       810       813       816       818       810       813       816       819
       814       813       816       817       814       813       816       818
       814       813       816       819       815       813       816       817
       815       813       816       818       815       813       816       819
       813       816       819       820       813       816       819       821
       813       816       819       822       817       816       819       820
       817       816       819       821       817       816       819       822
       818       816       819       820       818       816       819       821
       818       816       819       822       816       819       822       825
       816       819       822       823       816       819       822       824
       820       819       822       825       820       819       822       823
       820       819       822       824       821       819       822       825
       821       819       822       823       821       819       822       824
       826       825       822       819       827       825       822       819
       826       825       822       823       827       825       822       823
       826       825       822       824       827       825       822       824
       822       825       827       828       826       825       827       828
       825       827       828       829       825       827       828       830
       825       827       828       831       827       828       831       832
       827       828       831       833       827       828       831       860
       829       828       831       832       829       828       831       833
       829       828       831       860       830       828       831       832
       830       828       831       833       830       828       831       860
       828       831       833       834       828       831       833       835
       828       831       833       836       828       831       860       861
       832       831       833       834       832       831       833       835
       832       831       833       836       832       831       860       861
       834       833       831       860       835       833       831       860
       836       833       831       860       833       831       860       861
       831       833       836       837       834       833       836       837
       835       833       836       837       833       836       837       838
       833       836       837       858       833       836       837       859
       836       837       838       839       839       838       837       858
       839       838       837       859       837       838       839       840
       837       838       839       841       837       838       839       842
       838       839       842       843       838       839       842       844
       838       839       842       845       840       839       842       843
       840       839       842       844       840       839       842       845
       841       839       842       843       841       839       842       844
       841       839       842       845       839       842       845       846
       839       842       845       850       839       842       845       854
       843       842       845       846       843       842       845       850
       843       842       845       854       844       842       845       846
       844       842       845       850       844       842       845       854
       842       845       846       847       842       845       846       848
       842       845       846       849       842       845       850       851
       842       845       850       852       842       845       850       853
       842       845       854       855       842       845       854       856
       842       845       854       857       847       846       845       850
       848       846       845       850       849       846       845       850
       846       845       850       851       846       845       850       852
       846       845       850       853       847       846       845       854
       848       846       845       854       849       846       845       854
       846       845       854       855       846       845       854       856
       846       845       854       857       851       850       845       854
       852       850       845       854       853       850       845       854
       850       845       854       855       850       845       854       856
       850       845       854       857       831       860       861       863
       831       860       861       862       864       863       861       860
       865       863       861       860       866       863       861       860
       864       863       861       862       865       863       861       862
       866       863       861       862       861       863       866       867
       861       863       866       868       861       863       866       869
       864       863       866       867       864       863       866       868
       864       863       866       869       865       863       866       867
       865       863       866       868       865       863       866       869
       863       866       869       870       863       866       869       871
       863       866       869       872       867       866       869       870
       867       866       869       871       867       866       869       872
       868       866       869       870       868       866       869       871
       868       866       869       872       866       869       872       873
       866       869       872       874       866       869       872       875
       870       869       872       873       870       869       872       874
       870       869       872       875       871       869       872       873
       871       869       872       874       871       869       872       875
       869       872       875       876       869       872       875       877
       869       872       875       878       873       872       875       876
       873       872       875       877       873       872       875       878
       874       872       875       876       874       872       875       877
       874       872       875       878       872       875       878       879
       872       875       878       880       872       875       878       881
       876       875       878       879       876       875       878       880
       876       875       878       881       877       875       878       879
       877       875       878       880       877       875       878       881
       875       878       881       882       875       878       881       883
       875       878       881       884       879       878       881       882
       879       878       881       883       879       878       881       884
       880       878       881       882       880       878       881       883
       880       878       881       884       878       881       884       885
       878       881       884       886       882       881       884       885
       882       881       884       886       883       881       884       885
       883       881       884       886       881       884       886       887
       881       884       886       888       885       884       886       887
       885       884       886       888       884       886       888       889
       884       886       888       890       884       886       888       891
       887       886       888       889       887       886       888       890
       887       886       888       891       886       888       891       892
       886       888       891       893       886       888       891       894
       889       888       891       892       889       888       891       893
       889       888       891       894       890       888       891       892
       890       888       891       893       890       888       891       894
       888       891       894       895       888       891       894       896
       888       891       894       897       892       891       894       895
       892       891       894       896       892       891       894       897
       893       891       894       895       893       891       894       896
       893       891       894       897       891       894       897       898
       891       894       897       899       891       894       897       900
       895       894       897       898       895       894       897       899
       895       894       897       900       896       894       897       898
       896       894       897       899       896       894       897       900
       894       897       900       901       894       897       900       902
       894       897       900       903       898       897       900       901
       898       897       900       902       898       897       900       903
       899       897       900       901       899       897       900       902
       899       897       900       903       897       900       903       904
       897       900       903       905       897       900       903       906
       901       900       903       904       901       900       903       905
       901       900       903       906       902       900       903       904
       902       900       903       905       902       900       903       906
       900       903       906       907       900       903       906       908
       900       903       906       909       904       903       906       907
       904       903       906       908       904       903       906       909
       905       903       906       907       905       903       906       908
       905       903       906       909       903       906       909       910
       903       906       909       911       903       906       909       912
       907       906       909       910       907       906       909       911
       907       906       909       912       908       906       909       910
       908       906       909       911       908       906       909       912
       914       913       917       918       914       913       917       919
       914       913       917       920       915       913       917       918
       915       913       917       919       915       913       917       920
       916       913       917       918       916       913       917       919
       916       913       917       920       913       917       920       921
       913       917       920       922       913       917       920       923
       918       917       920       921       918       917       920       922
       918       917       920       923       919       917       920       921
       919       917       920       922       919       917       920       923
       917       920       923       924       917       920       923       925
       917       920       923       926       921       920       923       924
       921       920       923       925       921       920       923       926
       922       920       923       924       922       920       923       925
       922       920       923       926       920       923       926       927
       920       923       926       928       920       923       926       929
       924       923       926       927       924       923       926       928
       924       923       926       929       925       923       926       927
       925       923       926       928       925       923       926       929
       923       926       929       930       923       926       929       931
       923       926       929       932       927       926       929       930
       927       926       929       931       927       926       929       932
       928       926       929       930       928       926       929       931
       928       926       929       932       926       929       932       933
       926       929       932       934       926       929       932       935
       930       929       932       933       930       929       932       934
       930       929       932       935       931       929       932       933
       931       929       932       934       931       929       932       935
       929       932       935       936       929       932       935       937
       929       932       935       938       933       932       935       936
       933       932       935       937       933       932       935       938
       934       932       935       936       934       932       935       937
       934       932       935       938       932       935       938       939
       932       935       938       940       932       935       938       941
       936       935       938       939       936       935       938       940
       936       935       938       941       937       935       938       939
       937       935       938       940       937       935       938       941
       935       938       941       942       935       938       941       943
       935       938       941       944       939       938       941       942
       939       938       941       943       939       938       941       944
       940       938       941       942       940       938       941       943
       940       938       941       944       938       941       944       945
       938       941       944       946       938       941       944       947
       942       941       944       945       942       941       944       946
       942       941       944       947       943       941       944       945
       943       941       944       946       943       941       944       947
       941       944       947       948       941       944       947       949
       941       944       947       950       945       944       947       948
       945       944       947       949       945       944       947       950
       946       944       947       948       946       944       947       949
       946       944       947       950       944       947       950       951
       944       947       950       952       944       947       950       953
       948       947       950       951       948       947       950       952
       948       947       950       953       949       947       950       951
       949       947       950       952       949       947       950       953
       947       950       953       954       947       950       953       955
       947       950       953       956       951       950       953       954
       951       950       953       955       951       950       953       956
       952       950       953       954       952       950       953       955
       952       950       953       956       950       953       956       959
       950       953       956       957       950       953       956       958
       954       953       956       959       954       953       956       957
       954       953       956       958       955       953       956       959
       955       953       956       957       955       953       956       958
       960       959       956       953       961       959       956       953
       960       959       956       957       961       959       956       957
       960       959       956       958       961       959       956       958
       956       959       961       962       960       959       961       962
       959       961       962       963       959       961       962       964
       959       961       962       965       961       962       965       966
       961       962       965       967       961       962       965       994
       963       962       965       966       963       962       965       967
       963       962       965       994       964       962       965       966
       964       962       965       967       964       962       965       994
       962       965       967       968       962       965       967       969
       962       965       967       970       962       965       994       995
       966       965       967       968       966       965       967       969
       966       965       967       970       966       965       994       995
       968       967       965       994       969       967       965       994
       970       967       965       994       967       965       994       995
       965       967       970       971       968       967       970       971
       969       967       970       971       967       970       971       972
       967       970       971       992       967       970       971       993
       970       971       972       973       973       972       971       992
       973       972       971       993       971       972       973       974
       971       972       973       975       971       972       973       976
       972       973       976       977       972       973       976       978
       972       973       976       979       974       973       976       977
       974       973       976       978       974       973       976       979
       975       973       976       977       975       973       976       978
       975       973       976       979       973       976       979       980
       973       976       979       984       973       976       979       988
       977       976       979       980       977       976       979       984
       977       976       979       988       978       976       979       980
       978       976       979       984       978       976       979       988
       976       979       980       981       976       979       980       982
       976       979       980       983       976       979       984       985
       976       979       984       986       976       979       984       987
       976       979       988       989       976       979       988       990
       976       979       988       991       981       980       979       984
       982       980       979       984       983       980       979       984
       980       979       984       985       980       979       984       986
       980       979       984       987       981       980       979       988
       982       980       979       988       983       980       979       988
       980       979       988       989       980       979       988       990
       980       979       988       991       985       984       979       988
       986       984       979       988       987       984       979       988
       984       979       988       989       984       979       988       990
       984       979       988       991       965       994       995       997
       965       994       995       996       998       997       995       994
       999       997       995       994      1000       997       995       994
       998       997       995       996       999       997       995       996
      1000       997       995       996       995       997      1000      1001
       995       997      1000      1002       995       997      1000      1003
       998       997      1000      1001       998       997      1000      1002
       998       997      1000      1003       999       997      1000      1001
       999       997      1000      1002       999       997      1000      1003
       997      1000      1003      1004       997      1000      1003      1005
       997      1000      1003      1006      1001      1000      1003      1004
      1001      1000      1003      1005      1001      1000      1003      1006
      1002      1000      1003      1004      1002      1000      1003      1005
      1002      1000      1003      1006      1000      1003      1006      1007
      1000      1003      1006      1008      1000      1003      1006      1009
      1004      1003      1006      1007      1004      1003      1006      1008
      1004      1003      1006      1009      1005      1003      1006      1007
      1005      1003      1006      1008      1005      1003      1006      1009
      1003      1006      1009      1010      1003      1006      1009      1011
      1003      1006      1009      1012      1007      1006      1009      1010
      1007      1006      1009      1011      1007      1006      1009      1012
      1008      1006      1009      1010      1008      1006      1009      1011
      1008      1006      1009      1012      1006      1009      1012      1013
      1006      1009      1012      1014      1006      1009      1012      1015
      1010      1009      1012      1013      1010      1009      1012      1014
      1010      1009      1012      1015      1011      1009      1012      1013
      1011      1009      1012      1014      1011      1009      1012      1015
      1009      1012      1015      1016      1009      1012      1015      1017
      1009      1012      1015      1018      1013      1012      1015      1016
      1013      1012      1015      1017      1013      1012      1015      1018
      1014      1012      1015      1016      1014      1012      1015      1017
      1014      1012      1015      1018      1012      1015      1018      1019
      1012      1015      1018      1020      1016      1015      1018      1019
      1016      1015      1018      1020      1017      1015      1018      1019
      1017      1015      1018      1020      1015      1018      1020      1021
      1015      1018      1020      1022      1019      1018      1020      1021
      1019      1018      1020      1022      1018      1020      1022      1023
      1018      1020      1022      1024      1018      1020      1022      1025
      1021      1020      1022      1023      1021      1020      1022      1024
      1021      1020      1022      1025      1020      1022      1025      1026
      1020      1022      1025      1027      1020      1022      1025      1028
      1023      1022      1025      1026      1023      1022      1025      1027
      1023      1022      1025      1028      1024      1022      1025      1026
      1024      1022      1025      1027      1024      1022      1025      1028
      1022      1025      1028      1029      1022      1025      1028      1030
      1022      1025      1028      1031      1026      1025      1028      1029
      1026      1025      1028      1030      1026      1025      1028      1031
      1027      1025      1028      1029      1027      1025      1028      1030
      1027      1025      1028      1031      1025      1028      1031      1032
      1025      1028      1031      1033      1025      1028      1031      1034
      1029      1028      1031      1032      1029      1028      1031      1033
      1029      1028      1031      1034      1030      1028      1031      1032
      1030      1028      1031      1033      1030      1028      1031      1034
      1028      1031      1034      1035      1028      1031      1034      1036
      1028      1031      1034      1037      1032      1031      1034      1035
      1032      1031      1034      1036      1032      1031      1034      1037
      1033      1031      1034      1035      1033      1031      1034      1036
      1033      1031      1034      1037      1031      1034      1037      1038
      1031      1034      1037      1039      1031      1034      1037      1040
      1035      1034      1037      1038      1035      1034      1037      1039
      1035      1034      1037      1040      1036      1034      1037      1038
      1036      1034      1037      1039      1036      1034      1037      1040
      1034      1037      1040      1041      1034      1037      1040      1042
      1034      1037      1040      1043      1038      1037      1040      1041
      1038      1037      1040      1042      1038      1037      1040      1043
      1039      1037      1040      1041      1039      1037      1040      1042
      1039      1037      1040      1043      1037      1040      1043      1044
      1037      1040      1043      1045      1037      1040      1043      1046
      1041      1040      1043      1044      1041      1040      1043      1045
      1041      1040      1043      1046      1042      1040      1043      1044
      1042      1040      1043      1045      1042      1040      1043      1046
      1048      1047      1051      1052      1048      1047      1051      1053
      1048      1047      1051      1054      1049      1047      1051      1052
      1049      1047      1051      1053      1049      1047      1051      1054
      1050      1047      1051      1052      1050      1047      1051      1053
      1050      1047      1051      1054      1047      1051      1054      1055
      1047      1051      1054      1056      1047      1051      1054      1057
      1052      1051      1054      1055      1052      1051      1054      1056
      1052      1051      1054      1057      1053      1051      1054      1055
      1053      1051      1054      1056      1053      1051      1054      1057
      1051      1054      1057      1058      1051      1054      1057      1059
      1051      1054      1057      1060      1055      1054      1057      1058
      1055      1054      1057      1059      1055      1054      1057      1060
      1056      1054      1057      1058      1056      1054      1057      1059
      1056      1054      1057      1060      1054      1057      1060      1061
      1054      1057      1060      1062      1054      1057      1060      1063
      1058      1057      1060      1061      1058      1057      1060      1062
      1058      1057      1060      1063      1059      1057      1060      1061
      1059      1057      1060      1062      1059      1057      1060      1063
      1057      1060      1063      1064      1057      1060      1063      1065
      1057      1060      1063      1066      1061      1060      1063      1064
      1061      1060      1063      1065      1061      1060      1063      1066
      1062      1060      1063      1064      1062      1060      1063      1065
      1062      1060      1063      1066      1060      1063      1066      1067
      1060      1063      1066      1068      1060      1063      1066      1069
      1064      1063      1066      1067      1064      1063      1066      1068
      1064      1063      1066      1069      1065      1063      1066      1067
      1065      1063      1066      1068      1065      1063      1066      1069
      1063      1066      1069      1070      1063      1066      1069      1071
      1063      1066      1069      1072      1067      1066      1069      1070
      1067      1066      1069      1071      1067      1066      1069      1072
      1068      1066      1069      1070      1068      1066      1069      1071
      1068      1066      1069      1072      1066      1069      1072      1073
      1066      1069      1072      1074      1066      1069      1072      1075
      1070      1069      1072      1073      1070      1069      1072      1074
      1070      1069      1072      1075      1071      1069      1072      1073
      1071      1069      1072      1074      1071      1069      1072      1075
      1069      1072      1075      1076      1069      1072      1075      1077
      1069      1072      1075      1078      1073      1072      1075      1076
      1073      1072      1075      1077      1073      1072      1075      1078
      1074      1072      1075      1076      1074      1072      1075      1077
      1074      1072      1075      1078      1072      1075      1078      1079
      1072      1075      1078      1080      1072      1075      1078      1081
      1076      1075      1078      1079      1076      1075      1078      1080
      1076      1075      1078      1081      1077      1075      1078      1079
      1077      1075      1078      1080      1077      1075      1078      1081
      1075      1078      1081      1082      1075      1078      1081      1083
      1075      1078      1081      1084      1079      1078      1081      1082
      1079      1078      1081      1083      1079      1078      1081      1084
      1080      1078      1081      1082      1080      1078      1081      1083
      1080      1078      1081      1084      1078      1081      1084      1085
      1078      1081      1084      1086      1078      1081      1084      1087
      1082      1081      1084      1085      1082      1081      1084      1086
      1082      1081      1084      1087      1083      1081      1084      1085
      1083      1081      1084      1086      1083      1081      1084      1087
      1081      1084      1087      1088      1081      1084      1087      1089
      1081      1084      1087      1090      1085      1084      1087      1088
      1085      1084      1087      1089      1085      1084      1087      1090
      1086      1084      1087      1088      1086      1084      1087      1089
      1086      1084      1087      1090      1084      1087      1090      1093
      1084      1087      1090      1091      1084      1087      1090      1092
      1088      1087      1090      1093      1088      1087      1090      1091
      1088      1087      1090      1092      1089      1087      1090      1093
      1089      1087      1090      1091      1089      1087      1090      1092
      1094      1093      1090      1087      1095      1093      1090      1087
      1094      1093      1090      1091      1095      1093      1090      1091
      1094      1093      1090      1092      1095      1093      1090      1092
      1090      1093      1095      1096      1094      1093      1095      1096
      1093      1095      1096      1097      1093      1095      1096      1098
      1093      1095      1096      1099      1095      1096      1099      1100
      1095      1096      1099      1101      1095      1096      1099      1128
      1097      1096      1099      1100      1097      1096      1099      1101
      1097      1096      1099      1128      1098      1096      1099      1100
      1098      1096      1099      1101      1098      1096      1099      1128
      1096      1099      1101      1102      1096      1099      1101      1103
      1096      1099      1101      1104      1096      1099      1128      1129
      1100      1099      1101      1102      1100      1099      1101      1103
      1100      1099      1101      1104      1100      1099      1128      1129
      1102      1101      1099      1128      1103      1101      1099      1128
      1104      1101      1099      1128      1101      1099      1128      1129
      1099      1101      1104      1105      1102      1101      1104      1105
      1103      1101      1104      1105      1101      1104      1105      1106
      1101      1104      1105      1126      1101      1104      1105      1127
      1104      1105      1106      1107      1107      1106      1105      1126
      1107      1106      1105      1127      1105      1106      1107      1108
      1105      1106      1107      1109      1105      1106      1107      1110
      1106      1107      1110      1111      1106      1107      1110      1112
      1106      1107      1110      1113      1108      1107      1110      1111
      1108      1107      1110      1112      1108      1107      1110      1113
      1109      1107      1110      1111      1109      1107      1110      1112
      1109      1107      1110      1113      1107      1110      1113      1114
      1107      1110      1113      1118      1107      1110      1113      1122
      1111      1110      1113      1114      1111      1110      1113      1118
      1111      1110      1113      1122      1112      1110      1113      1114
      1112      1110      1113      1118      1112      1110      1113      1122
      1110      1113      1114      1115      1110      1113      1114      1116
      1110      1113      1114      1117      1110      1113      1118      1119
      1110      1113      1118      1120      1110      1113      1118      1121
      1110      1113      1122      1123      1110      1113      1122      1124
      1110      1113      1122      1125      1115      1114      1113      1118
      1116      1114      1113      1118      1117      1114      1113      1118
      1114      1113      1118      1119      1114      1113      1118      1120
      1114      1113      1118      1121      1115      1114      1113      1122
      1116      1114      1113      1122      1117      1114      1113      1122
      1114      1113      1122      1123      1114      1113      1122      1124
      1114      1113      1122      1125      1119      1118      1113      1122
      1120      1118      1113      1122      1121      1118      1113      1122
      1118      1113      1122      1123      1118      1113      1122      1124
      1118      1113      1122      1125      1099      1128      1129      1131
      1099      1128      1129      1130      1132      1131      1129      1128
      1133      1131      1129      1128      1134      1131      1129      1128
      1132      1131      1129      1130      1133      1131      1129      1130
      1134      1131      1129      1130      1129      1131      1134      1135
      1129      1131      1134      1136      1129      1131      1134      1137
      1132      1131      1134      1135      1132      1131      1134      1136
      1132      1131      1134      1137      1133      1131      1134      1135
      1133      1131      1134      1136      1133      1131      1134      1137
      1131      1134      1137      1138      1131      1134      1137      1139
      1131      1134      1137      1140      1135      1134      1137      1138
      1135      1134      1137      1139      1135      1134      1137      1140
      1136      1134      1137      1138      1136      1134      1137      1139
      1136      1134      1137      1140      1134      1137      1140      1141
      1134      1137      1140      1142      1134      1137      1140      1143
      1138      1137      1140      1141      1138      1137      1140      1142
      1138      1137      1140      1143      1139      1137      1140      1141
      1139      1137      1140      1142      1139      1137      1140      1143
      1137      1140      1143      1144      1137      1140      1143      1145
      1137      1140      1143      1146      1141      1140      1143      1144
      1141      1140      1143      1145      1141      1140      1143      1146
      1142      1140      1143      1144      1142      1140      1143      1145
      1142      1140      1143      1146      1140      1143      1146      1147
      1140      1143      1146      1148      1140      1143      1146      1149
      1144      1143      1146      1147      1144      1143      1146      1148
      1144      1143      1146      1149      1145      1143      1146      1147
      1145      1143      1146      1148      1145      1143      1146      1149
      1143      1146      1149      1150      1143      1146      1149      1151
      1143      1146      1149      1152      1147      1146      1149      1150
      1147      1146      1149      1151      1147      1146      1149      1152
      1148      1146      1149      1150      1148      1146      1149      1151
      1148      1146      1149      1152      1146      1149      1152      1153
      1146      1149      1152      1154      1150      1149      1152      1153
      1150      1149      1152      1154      1151      1149      1152      1153
      1151      1149      1152      1154      1149      1152      1154      1155
      1149      1152      1154      1156      1153      1152      1154      1155
      1153      1152      1154      1156      1152      1154      1156      1157
      1152      1154      1156      1158      1152      1154      1156      1159
      1155      1154      1156      1157      1155      1154      1156      1158
      1155      1154      1156      1159      1154      1156      1159      1160
      1154      1156      1159      1161      1154      1156      1159      1162
      1157      1156      1159      1160      1157      1156      1159      1161
      1157      1156      1159      1162      1158      1156      1159      1160
      1158      1156      1159      1161      1158      1156      1159      1162
      1156      1159      1162      1163      1156      1159      1162      1164
      1156      1159      1162      1165      1160      1159      1162      1163
      1160      1159      1162      1164      1160      1159      1162      1165
      1161      1159      1162      1163      1161      1159      1162      1164
      1161      1159      1162      1165      1159      1162      1165      1166
      1159      1162      1165      1167      1159      1162      1165      1168
      1163      1162      1165      1166      1163      1162      1165      1167
      1163      1162      1165      1168      1164      1162      1165      1166
      1164      1162      1165      1167      1164      1162      1165      1168
      1162      1165      1168      1169      1162      1165      1168      1170
      1162      1165      1168      1171      1166      1165      1168      1169
      1166      1165      1168      1170      1166      1165      1168      1171
      1167      1165      1168      1169      1167      1165      1168      1170
      1167      1165      1168      1171      1165      1168      1171      1172
      1165      1168      1171      1173      1165      1168      1171      1174
      1169      1168      1171      1172      1169      1168      1171      1173
      1169      1168      1171      1174      1170      1168      1171      1172
      1170      1168      1171      1173      1170      1168      1171      1174
      1168      1171      1174      1175      1168      1171      1174      1176
      1168      1171      1174      1177      1172      1171      1174      1175
      1172      1171      1174      1176      1172      1171      1174      1177
      1173      1171      1174      1175      1173      1171      1174      1176
      1173      1171      1174      1177      1171      1174      1177      1178
      1171      1174      1177      1179      1171      1174      1177      1180
      1175      1174      1177      1178      1175      1174      1177      1179
      1175      1174      1177      1180      1176      1174      1177      1178
      1176      1174      1177      1179      1176      1174      1177      1180
      1182      1181      1185      1186      1182      1181      1185      1187
      1182      1181      1185      1188      1183      1181      1185      1186
      1183      1181      1185      1187      1183      1181      1185      1188
      1184      1181      1185      1186      1184      1181      1185      1187
      1184      1181      1185      1188      1181      1185      1188      1189
      1181      1185      1188      1190      1181      1185      1188      1191
      1186      1185      1188      1189      1186      1185      1188      1190
      1186      1185      1188      1191      1187      1185      1188      1189
      1187      1185      1188      1190      1187      1185      1188      1191
      1185      1188      1191      1192      1185      1188      1191      1193
      1185      1188      1191      1194      1189      1188      1191      1192
      1189      1188      1191      1193      1189      1188      1191      1194
      1190      1188      1191      1192      1190      1188      1191      1193
      1190      1188      1191      1194      1188      1191      1194      1195
      1188      1191      1194      1196      1188      1191      1194      1197
      1192      1191      1194      1195      1192      1191      1194      1196
      1192      1191      1194      1197      1193      1191      1194      1195
      1193      1191      1194      1196      1193      1191      1194      1197
      1191      1194      1197      1198      1191      1194      1197      1199
      1191      1194      1197      1200      1195      1194      1197      1198
      1195      1194      1197      1199      1195      1194      1197      1200
      1196      1194      1197      1198      1196      1194      1197      1199
      1196      1194      1197      1200      1194      1197      1200      1201
      1194      1197      1200      1202      1194      1197      1200      1203
      1198      1197      1200      1201      1198      1197      1200      1202
      1198      1197      1200      1203      1199      1197      1200      1201
      1199      1197      1200      1202      1199      1197      1200      1203
      1197      1200      1203      1204      1197      1200      1203      1205
      1197      1200      1203      1206      1201      1200      1203      1204
      1201      1200      1203      1205      1201      1200      1203      1206
      1202      1200      1203      1204      1202      1200      1203      1205
      1202      1200      1203      1206      1200      1203      1206      1207
      1200      1203      1206      1208      1200      1203      1206      1209
      1204      1203      1206      1207      1204      1203      1206      1208
      1204      1203      1206      1209      1205      1203      1206      1207
      1205      1203      1206      1208      1205      1203      1206      1209
      1203      1206      1209      1210      1203      1206      1209      1211
      1203      1206      1209      1212      1207      1206      1209      1210
      1207      1206      1209      1211      1207      1206      1209      1212
      1208      1206      1209      1210      1208      1206      1209      1211
      1208      1206      1209      1212      1206      1209      1212      1213
      1206      1209      1212      1214      1206      1209      1212      1215
      1210      1209      1212      1213      1210      1209      1212      1214
      1210      1209      1212      1215      1211      1209      1212      1213
      1211      1209      1212      1214      1211      1209      1212      1215
      1209      1212      1215      1216      1209      1212      1215      1217
      1209      1212      1215      1218      1213      1212      1215      1216
      1213      1212      1215      1217      1213      1212      1215      1218
      1214      1212      1215      1216      1214      1212      1215      1217
      1214      1212      1215      1218      1212      1215      1218      1219
      1212      1215      1218      1220      1212      1215      1218      1221
      1216      1215      1218      1219      1216      1215      1218      1220
      1216      1215      1218      1221      1217      1215      1218      1219
      1217      1215      1218      1220      1217      1215      1218      1221
      1215      1218      1221      1222      1215      1218      1221      1223
      1215      1218      1221      1224      1219      1218      1221      1222
      1219      1218      1221      1223      1219      1218      1221      1224
      1220      1218      1221      1222      1220      1218      1221      1223
      1220      1218      1221      1224      1218      1221      1224      1227
      1218      1221      1224      1225      1218      1221      1224      1226
      1222      1221      1224      1227      1222      1221      1224      1225
      1222      1221      1224      1226      1223      1221      1224      1227
      1223      1221      1224      1225      1223      1221      1224      1226
      1228      1227      1224      1221      1229      1227      1224      1221
      1228      1227      1224      1225      1229      1227      1224      1225
      1228      1227      1224      1226      1229      1227      1224      1226
      1224      1227      1229      1230      1228      1227      1229      1230
      1227      1229      1230      1231      1227      1229      1230      1232
      1227      1229      1230      1233      1229      1230      1233      1234
      1229      1230      1233      1235      1229      1230      1233      1262
      1231      1230      1233      1234      1231      1230      1233      1235
      1231      1230      1233      1262      1232      1230      1233      1234
      1232      1230      1233      1235      1232      1230      1233      1262
      1230      1233      1235      1236      1230      1233      1235      1237
      1230      1233      1235      1238      1230      1233      1262      1263
      1234      1233      1235      1236      1234      1233      1235      1237
      1234      1233      1235      1238      1234      1233      1262      1263
      1236      1235      1233      1262      1237      1235      1233      1262
      1238      1235      1233      1262      1235      1233      1262      1263
      1233      1235      1238      1239      1236      1235      1238      1239
      1237      1235      1238      1239      1235      1238      1239      1240
      1235      1238      1239      1260      1235      1238      1239      1261
      1238      1239      1240      1241      1241      1240      1239      1260
      1241      1240      1239      1261      1239      1240      1241      1242
      1239      1240      1241      1243      1239      1240      1241      1244
      1240      1241      1244      1245      1240      1241      1244      1246
      1240      1241      1244      1247      1242      1241      1244      1245
      1242      1241      1244      1246      1242      1241      1244      1247
      1243      1241      1244      1245      1243      1241      1244      1246
      1243      1241      1244      1247      1241      1244      1247      1248
      1241      1244      1247      1252      1241      1244      1247      1256
      1245      1244      1247      1248      1245      1244      1247      1252
      1245      1244      1247      1256      1246      1244      1247      1248
      1246      1244      1247      1252      1246      1244      1247      1256
      1244      1247      1248      1249      1244      1247      1248      1250
      1244      1247      1248      1251      1244      1247      1252      1253
      1244      1247      1252      1254      1244      1247      1252      1255
      1244      1247      1256      1257      1244      1247      1256      1258
      1244      1247      1256      1259      1249      1248      1247      1252
      1250      1248      1247      1252      1251      1248      1247      1252
      1248      1247      1252      1253      1248      1247      1252      1254
      1248      1247      1252      1255      1249      1248      1247      1256
      1250      1248      1247      1256      1251      1248      1247      1256
      1248      1247      1256      1257      1248      1247      1256      1258
      1248      1247      1256      1259      1253      1252      1247      1256
      1254      1252      1247      1256      1255      1252      1247      1256
      1252      1247      1256      1257      1252      1247      1256      1258
      1252      1247      1256      1259      1233      1262      1263      1265
      1233      1262      1263      1264      1266      1265      1263      1262
      1267      1265      1263      1262      1268      1265      1263      1262
      1266      1265      1263      1264      1267      1265      1263      1264
      1268      1265      1263      1264      1263      1265      1268      1269
      1263      1265      1268      1270      1263      1265      1268      1271
      1266      1265      1268      1269      1266      1265      1268      1270
      1266      1265      1268      1271      1267      1265      1268      1269
      1267      1265      1268      1270      1267      1265      1268      1271
      1265      1268      1271      1272      1265      1268      1271      1273
      1265      1268      1271      1274      1269      1268      1271      1272
      1269      1268      1271      1273      1269      1268      1271      1274
      1270      1268      1271      1272      1270      1268      1271      1273
      1270      1268      1271      1274      1268      1271      1274      1275
      1268      1271      1274      1276      1268      1271      1274      1277
      1272      1271      1274      1275      1272      1271      1274      1276
      1272      1271      1274      1277      1273      1271      1274      1275
      1273      1271      1274      1276      1273      1271      1274      1277
      1271      1274      1277      1278      1271      1274      1277      1279
      1271      1274      1277      1280      1275      1274      1277      1278
      1275      1274      1277      1279      1275      1274      1277      1280
      1276      1274      1277      1278      1276      1274      1277      1279
      1276      1274      1277      1280      1274      1277      1280      1281
      1274      1277      1280      1282      1274      1277      1280      1283
      1278      1277      1280      1281      1278      1277      1280      1282
      1278      1277      1280      1283      1279      1277      1280      1281
      1279      1277      1280      1282      1279      1277      1280      1283
      1277      1280      1283      1284      1277      1280      1283      1285
      1277      1280      1283      1286      1281      1280      1283      1284
      1281      1280      1283      1285      1281      1280      1283      1286
      1282      1280      1283      1284      1282      1280      1283      1285
      1282      1280      1283      1286      1280      1283      1286      1287
      1280      1283      1286      1288      1284      1283      1286      1287
      1284      1283      1286      1288      1285      1283      1286      1287
      1285      1283      1286      1288      1283      1286      1288      1289
      1283      1286      1288      1290      1287      1286      1288      1289
      1287      1286      1288      1290      1286      1288      1290      1291
      1286      1288      1290      1292      1286      1288      1290      1293
      1289      1288      1290      1291      1289      1288      1290      1292
      1289      1288      1290      1293      1288      1290      1293      1294
      1288      1290      1293      1295      1288      1290      1293      1296
      1291      1290      1293      1294      1291      1290      1293      1295
      1291      1290      1293      1296      1292      1290      1293      1294
      1292      1290      1293      1295      1292      1290      1293      1296
      1290      1293      1296      1297      1290      1293      1296      1298
      1290      1293      1296      1299      1294      1293      1296      1297
      1294      1293      1296      1298      1294      1293      1296      1299
      1295      1293      1296      1297      1295      1293      1296      1298
      1295      1293      1296      1299      1293      1296      1299      1300
      1293      1296      1299      1301      1293      1296      1299      1302
      1297      1296      1299      1300      1297      1296      1299      1301
      1297      1296      1299      1302      1298      1296      1299      1300
      1298      1296      1299      1301      1298      1296      1299      1302
      1296      1299      1302      1303      1296      1299      1302      1304
      1296      1299      1302      1305      1300      1299      1302      1303
      1300      1299      1302      1304      1300      1299      1302      1305
      1301      1299      1302      1303      1301      1299      1302      1304
      1301      1299      1302      1305      1299      1302      1305      1306
      1299      1302      1305      1307      1299      1302      1305      1308
      1303      1302      1305      1306      1303      1302      1305      1307
      1303      1302      1305      1308      1304      1302      1305      1306
      1304      1302      1305      1307      1304      1302      1305      1308
      1302      1305      1308      1309      1302      1305      1308      1310
      1302      1305      1308      1311      1306      1305      1308      1309
      1306      1305      1308      1310      1306      1305      1308      1311
      1307      1305      1308      1309      1307      1305      1308      1310
      1307      1305      1308      1311      1305      1308      1311      1312
      1305      1308      1311      1313      1305      1308      1311      1314
      1309      1308      1311      1312      1309      1308      1311      1313
      1309      1308      1311      1314      1310      1308      1311      1312
      1310      1308      1311      1313      1310      1308      1311      1314
      1316      1315      1319      1320      1316      1315      1319      1321
      1316      1315      1319      1322      1317      1315      1319      1320
      1317      1315      1319      1321      1317      1315      1319      1322
      1318      1315      1319      1320      1318      1315      1319      1321
      1318      1315      1319      1322      1315      1319      1322      1323
      1315      1319      1322      1324      1315      1319      1322      1325
      1320      1319      1322      1323      1320      1319      1322      1324
      1320      1319      1322      1325      1321      1319      1322      1323
      1321      1319      1322      1324      1321      1319      1322      1325
      1319      1322      1325      1326      1319      1322      1325      1327
      1319      1322      1325      1328      1323      1322      1325      1326
      1323      1322      1325      1327      1323      1322      1325      1328
      1324      1322      1325      1326      1324      1322      1325      1327
      1324      1322      1325      1328      1322      1325      1328      1329
      1322      1325      1328      1330      1322      1325      1328      1331
      1326      1325      1328      1329      1326      1325      1328      1330
      1326      1325      1328      1331      1327      1325      1328      1329
      1327      1325      1328      1330      1327      1325      1328      1331
      1325      1328      1331      1332      1325      1328      1331      1333
      1325      1328      1331      1334      1329      1328      1331      1332
      1329      1328      1331      1333      1329      1328      1331      1334
      1330      1328      1331      1332      1330      1328      1331      1333
      1330      1328      1331      1334      1328      1331      1334      1335
      1328      1331      1334      1336      1328      1331      1334      1337
      1332      1331      1334      1335      1332      1331      1334      1336
      1332      1331      1334      1337      1333      1331      1334      1335
      1333      1331      1334      1336      1333      1331      1334      1337
      1331      1334      1337      1338      1331      1334      1337      1339
      1331      1334      1337      1340      1335      1334      1337      1338
      1335      1334      1337      1339      1335      1334      1337      1340
      1336      1334      1337      1338      1336      1334      1337      1339
      1336      1334      1337      1340      1334      1337      1340      1341
      1334      1337      1340      1342      1334      1337      1340      1343
      1338      1337      1340      1341      1338      1337      1340      1342
      1338      1337      1340      1343      1339      1337      1340      1341
      1339      1337      1340      1342      1339      1337      1340      1343
      1337      1340      1343      1344      1337      1340      1343      1345
      1337      1340      1343      1346      1341      1340      1343      1344
      1341      1340      1343      1345      1341      1340      1343      1346
      1342      1340      1343      1344      1342      1340      1343      1345
      1342      1340      1343      1346      1340      1343      1346      1347
      1340      1343      1346      1348      1340      1343      1346      1349
      1344      1343      1346      1347      1344      1343      1346      1348
      1344      1343      1346      1349      1345      1343      1346      1347
      1345      1343      1346      1348      1345      1343      1346      1349
      1343      1346      1349      1350      1343      1346      1349      1351
      1343      1346      1349      1352      1347      1346      1349      1350
      1347      1346      1349      1351      1347      1346      1349      1352
      1348      1346      1349      1350      1348      1346      1349      1351
      1348      1346      1349      1352      1346      1349      1352      1353
      1346      1349      1352      1354      1346      1349      1352      1355
      1350      1349      1352      1353      1350      1349      1352      1354
      1350      1349      1352      1355      1351      1349      1352      1353
      1351      1349      1352      1354      1351      1349      1352      1355
      1349      1352      1355      1356      1349      1352      1355      1357
      1349      1352      1355      1358      1353      1352      1355      1356
      1353      1352      1355      1357      1353      1352      1355      1358
      1354      1352      1355      1356      1354      1352      1355      1357
      1354      1352      1355      1358      1352      1355      1358      1361
      1352      1355      1358      1359      1352      1355      1358      1360
      1356      1355      1358      1361      1356      1355      1358      1359
      1356      1355      1358      1360      1357      1355      1358      1361
      1357      1355      1358      1359      1357      1355      1358      1360
      1362      1361      1358      1355      1363      1361      1358      1355
      1362      1361      1358      1359      1363      1361      1358      1359
      1362      1361      1358      1360      1363      1361      1358      1360
      1358      1361      1363      1364      1362      1361      1363      1364
      1361      1363      1364      1365      1361      1363      1364      1366
      1361      1363      1364      1367      1363      1364      1367      1368
      1363      1364      1367      1369      1363      1364      1367      1396
      1365      1364      1367      1368      1365      1364      1367      1369
      1365      1364      1367      1396      1366      1364      1367      1368
      1366      1364      1367      1369      1366      1364      1367      1396
      1364      1367      1369      1370      1364      1367      1369      1371
      1364      1367      1369      1372      1364      1367      1396      1397
      1368      1367      1369      1370      1368      1367      1369      1371
      1368      1367      1369      1372      1368      1367      1396      1397
      1370      1369      1367      1396      1371      1369      1367      1396
      1372      1369      1367      1396      1369      1367      1396      1397
      1367      1369      1372      1373      1370      1369      1372      1373
      1371      1369      1372      1373      1369      1372      1373      1374
      1369      1372      1373      1394      1369      1372      1373      1395
      1372      1373      1374      1375      1375      1374      1373      1394
      1375      1374      1373      1395      1373      1374      1375      1376
      1373      1374      1375      1377      1373      1374      1375      1378
      1374      1375      1378      1379      1374      1375      1378      1380
      1374      1375      1378      1381      1376      1375      1378      1379
      1376      1375      1378      1380      1376      1375      1378      1381
      1377      1375      1378      1379      1377      1375      1378      1380
      1377      1375      1378      1381      1375      1378      1381      1382
      1375      1378      1381      1386      1375      1378      1381      1390
      1379      1378      1381      1382      1379      1378      1381      1386
      1379      1378      1381      1390      1380      1378      1381      1382
      1380      1378      1381      1386      1380      1378      1381      1390
      1378      1381      1382      1383      1378      1381      1382      1384
      1378      1381      1382      1385      1378      1381      1386      1387
      1378      1381      1386      1388      1378      1381      1386      1389
      1378      1381      1390      1391      1378      1381      1390      1392
      1378      1381      1390      1393      1383      1382      1381      1386
      1384      1382      1381      1386      1385      1382      1381      1386
      1382      1381      1386      1387      1382      1381      1386      1388
      1382      1381      1386      1389      1383      1382      1381      1390
      1384      1382      1381      1390      1385      1382      1381      1390
      1382      1381      1390      1391      1382      1381      1390      1392
      1382      1381      1390      1393      1387      1386      1381      1390
      1388      1386      1381      1390      1389      1386      1381      1390
      1386      1381      1390      1391      1386      1381      1390      1392
      1386      1381      1390      1393      1367      1396      1397      1399
      1367      1396      1397      1398      1400      1399      1397      1396
      1401      1399      1397      1396      1402      1399      1397      1396
      1400      1399      1397      1398      1401      1399      1397      1398
      1402      1399      1397      1398      1397      1399      1402      1403
      1397      1399      1402      1404      1397      1399      1402      1405
      1400      1399      1402      1403      1400      1399      1402      1404
      1400      1399      1402      1405      1401      1399      1402      1403
      1401      1399      1402      1404      1401      1399      1402      1405
      1399      1402      1405      1406      1399      1402      1405      1407
      1399      1402      1405      1408      1403      1402      1405      1406
      1403      1402      1405      1407      1403      1402      1405      1408
      1404      1402      1405      1406      1404      1402      1405      1407
      1404      1402      1405      1408      1402      1405      1408      1409
      1402      1405      1408      1410      1402      1405      1408      1411
      1406      1405      1408      1409      1406      1405      1408      1410
      1406      1405      1408      1411      1407      1405      1408      1409
      1407      1405      1408      1410      1407      1405      1408      1411
      1405      1408      1411      1412      1405      1408      1411      1413
      1405      1408      1411      1414      1409      1408      1411      1412
      1409      1408      1411      1413      1409      1408      1411      1414
      1410      1408      1411      1412      1410      1408      1411      1413
      1410      1408      1411      1414      1408      1411      1414      1415
      1408      1411      1414      1416      1408      1411      1414      1417
      1412      1411      1414      1415      1412      1411      1414      1416
      1412      1411      1414      1417      1413      1411      1414      1415
      1413      1411      1414      1416      1413      1411      1414      1417
      1411      1414      1417      1418      1411      1414      1417      1419
      1411      1414      1417      1420      1415      1414      1417      1418
      1415      1414      1417      1419      1415      1414      1417      1420
      1416      1414      1417      1418      1416      1414      1417      1419
      1416      1414      1417      1420      1414      1417      1420      1421
      1414      1417      1420      1422      1418      1417      1420      1421
      1418      1417      1420      1422      1419      1417      1420      1421
      1419      1417      1420      1422      1417      1420      1422      1423
      1417      1420      1422      1424      1421      1420      1422      1423
      1421      1420      1422      1424      1420      1422      1424      1425
      1420      1422      1424      1426      1420      1422      1424      1427
      1423      1422      1424      1425      1423      1422      1424      1426
      1423      1422      1424      1427      1422      1424      1427      1428
      1422      1424      1427      1429      1422      1424      1427      1430
      1425      1424      1427      1428      1425      1424      1427      1429
      1425      1424      1427      1430      1426      1424      1427      1428
      1426      1424      1427      1429      1426      1424      1427      1430
      1424      1427      1430      1431      1424      1427      1430      1432
      1424      1427      1430      1433      1428      1427      1430      1431
      1428      1427      1430      1432      1428      1427      1430      1433
      1429      1427      1430      1431      1429      1427      1430      1432
      1429      1427      1430      1433      1427      1430      1433      1434
      1427      1430      1433      1435      1427      1430      1433      1436
      1431      1430      1433      1434      1431      1430      1433      1435
      1431      1430      1433      1436      1432      1430      1433      1434
      1432      1430      1433      1435      1432      1430      1433      1436
      1430      1433      1436      1437      1430      1433      1436      1438
      1430      1433      1436      1439      1434      1433      1436      1437
      1434      1433      1436      1438      1434      1433      1436      1439
      1435      1433      1436      1437      1435      1433      1436      1438
      1435      1433      1436      1439      1433      1436      1439      1440
      1433      1436      1439      1441      1433      1436      1439      1442
      1437      1436      1439      1440      1437      1436      1439      1441
      1437      1436      1439      1442      1438      1436      1439      1440
      1438      1436      1439      1441      1438      1436      1439      1442
      1436      1439      1442      1443      1436      1439      1442      1444
      1436      1439      1442      1445      1440      1439      1442      1443
      1440      1439      1442      1444      1440      1439      1442      1445
      1441      1439      1442      1443      1441      1439      1442      1444
      1441      1439      1442      1445      1439      1442      1445      1446
      1439      1442      1445      1447      1439      1442      1445      1448
      1443      1442      1445      1446      1443      1442      1445      1447
      1443      1442      1445      1448      1444      1442      1445      1446
      1444      1442      1445      1447      1444      1442      1445      1448
      1450      1449      1453      1454      1450      1449      1453      1455
      1450      1449      1453      1456      1451      1449      1453      1454
      1451      1449      1453      1455      1451      1449      1453      1456
      1452      1449      1453      1454      1452      1449      1453      1455
      1452      1449      1453      1456      1449      1453      1456      1457
      1449      1453      1456      1458      1449      1453      1456      1459
      1454      1453      1456      1457      1454      1453      1456      1458
      1454      1453      1456      1459      1455      1453      1456      1457
      1455      1453      1456      1458      1455      1453      1456      1459
      1453      1456      1459      1460      1453      1456      1459      1461
      1453      1456      1459      1462      1457      1456      1459      1460
      1457      1456      1459      1461      1457      1456      1459      1462
      1458      1456      1459      1460      1458      1456      1459      1461
      1458      1456      1459      1462      1456      1459      1462      1463
      1456      1459      1462      1464      1456      1459      1462      1465
      1460      1459      1462      1463      1460      1459      1462      1464
      1460      1459      1462      1465      1461      1459      1462      1463
      1461      1459      1462      1464      1461      1459      1462      1465
      1459      1462      1465      1466      1459      1462      1465      1467
      1459      1462      1465      1468      1463      1462      1465      1466
      1463      1462      1465      1467      1463      1462      1465      1468
      1464      1462      1465      1466      1464      1462      1465      1467
      1464      1462      1465      1468      1462      1465      1468      1469
      1462      1465      1468      1470      1462      1465      1468      1471
      1466      1465      1468      1469      1466      1465      1468      1470
      1466      1465      1468      1471      1467      1465      1468      1469
      1467      1465      1468      1470      1467      1465      1468      1471
      1465      1468      1471      1472      1465      1468      1471      1473
      1465      1468      1471      1474      1469      1468      1471      1472
      1469      1468      1471      1473      1469      1468      1471      1474
      1470      1468      1471      1472      1470      1468      1471      1473
      1470      1468      1471      1474      1468      1471      1474      1475
      1468      1471      1474      1476      1468      1471      1474      1477
      1472      1471      1474      1475      1472      1471      1474      1476
      1472      1471      1474      1477      1473      1471      1474      1475
      1473      1471      1474      1476      1473      1471      1474      1477
      1471      1474      1477      1478      1471      1474      1477      1479
      1471      1474      1477      1480      1475      1474      1477      1478
      1475      1474      1477      1479      1475      1474      1477      1480
      1476      1474      1477      1478      1476      1474      1477      1479
      1476      1474      1477      1480      1474      1477      1480      1481
      1474      1477      1480      1482      1474      1477      1480      1483
      1478      1477      1480      1481      1478      1477      1480      1482
      1478      1477      1480      1483      1479      1477      1480      1481
      1479      1477      1480      1482      1479      1477      1480      1483
      1477      1480      1483      1484      1477      1480      1483      1485
      1477      1480      1483      1486      1481      1480      1483      1484
      1481      1480      1483      1485      1481      1480      1483      1486
      1482      1480      1483      1484      1482      1480      1483      1485
      1482      1480      1483      1486      1480      1483      1486      1487
      1480      1483      1486      1488      1480      1483      1486      1489
      1484      1483      1486      1487      1484      1483      1486      1488
      1484      1483      1486      1489      1485      1483      1486      1487
      1485      1483      1486      1488      1485      1483      1486      1489
      1483      1486      1489      1490      1483      1486      1489      1491
      1483      1486      1489      1492      1487      1486      1489      1490
      1487      1486      1489      1491      1487      1486      1489      1492
      1488      1486      1489      1490      1488      1486      1489      1491
      1488      1486      1489      1492      1486      1489      1492      1495
      1486      1489      1492      1493      1486      1489      1492      1494
      1490      1489      1492      1495      1490      1489      1492      1493
      1490      1489      1492      1494      1491      1489      1492      1495
      1491      1489      1492      1493      1491      1489      1492      1494
      1496      1495      1492      1489      1497      1495      1492      1489
      1496      1495      1492      1493      1497      1495      1492      1493
      1496      1495      1492      1494      1497      1495      1492      1494
      1492      1495      1497      1498      1496      1495      1497      1498
      1495      1497      1498      1499      1495      1497      1498      1500
      1495      1497      1498      1501      1497      1498      1501      1502
      1497      1498      1501      1503      1497      1498      1501      1530
      1499      1498      1501      1502      1499      1498      1501      1503
      1499      1498      1501      1530      1500      1498      1501      1502
      1500      1498      1501      1503      1500      1498      1501      1530
      1498      1501      1503      1504      1498      1501      1503      1505
      1498      1501      1503      1506      1498      1501      1530      1531
      1502      1501      1503      1504      1502      1501      1503      1505
      1502      1501      1503      1506      1502      1501      1530      1531
      1504      1503      1501      1530      1505      1503      1501      1530
      1506      1503      1501      1530      1503      1501      1530      1531
      1501      1503      1506      1507      1504      1503      1506      1507
      1505      1503      1506      1507      1503      1506      1507      1508
      1503      1506      1507      1528      1503      1506      1507      1529
      1506      1507      1508      1509      1509      1508      1507      1528
      1509      1508      1507      1529      1507      1508      1509      1510
      1507      1508      1509      1511      1507      1508      1509      1512
      1508      1509      1512      1513      1508      1509      1512      1514
      1508      1509      1512      1515      1510      1509      1512      1513
      1510      1509      1512      1514      1510      1509      1512      1515
      1511      1509      1512      1513      1511      1509      1512      1514
      1511      1509      1512      1515      1509      1512      1515      1516
      1509      1512      1515      1520      1509      1512      1515      1524
      1513      1512      1515      1516      1513      1512      1515      1520
      1513      1512      1515      1524      1514      1512      1515      1516
      1514      1512      1515      1520      1514      1512      1515      1524
      1512      1515      1516      1517      1512      1515      1516      1518
      1512      1515      1516      1519      1512      1515      1520      1521
      1512      1515      1520      1522      1512      1515      1520      1523
      1512      1515      1524      1525      1512      1515      1524      1526
      1512      1515      1524      1527      1517      1516      1515      1520
      1518      1516      1515      1520      1519      1516      1515      1520
      1516      1515      1520      1521      1516      1515      1520      1522
      1516      1515      1520      1523      1517      1516      1515      1524
      1518      1516      1515      1524      1519      1516      1515      1524
      1516      1515      1524      1525      1516      1515      1524      1526
      1516      1515      1524      1527      1521      1520      1515      1524
      1522      1520      1515      1524      1523      1520      1515      1524
      1520      1515      1524      1525      1520      1515      1524      1526
      1520      1515      1524      1527      1501      1530      1531      1533
      1501      1530      1531      1532      1534      1533      1531      1530
      1535      1533      1531      1530      1536      1533      1531      1530
      1534      1533      1531      1532      1535      1533      1531      1532
      1536      1533      1531      1532      1531      1533      1536      1537
      1531      1533      1536      1538      1531      1533      1536      1539
      1534      1533      1536      1537      1534      1533      1536      1538
      1534      1533      1536      1539      1535      1533      1536      1537
      1535      1533      1536      1538      1535      1533      1536      1539
      1533      1536      1539      1540      1533      1536      1539      1541
      1533      1536      1539      1542      1537      1536      1539      1540
      1537      1536      1539      1541      1537      1536      1539      1542
      1538      1536      1539      1540      1538      1536      1539      1541
      1538      1536      1539      1542      1536      1539      1542      1543
      1536      1539      1542      1544      1536      1539      1542      1545
      1540      1539      1542      1543      1540      1539      1542      1544
      1540      1539      1542      1545      1541      1539      1542      1543
      1541      1539      1542      1544      1541      1539      1542      1545
      1539      1542      1545      1546      1539      1542      1545      1547
      1539      1542      1545      1548      1543      1542      1545      1546
      1543      1542      1545      1547      1543      1542      1545      1548
      1544      1542      1545      1546      1544      1542      1545      1547
      1544      1542      1545      1548      1542      1545      1548      1549
      1542      1545      1548      1550      1542      1545      1548      1551
      1546      1545      1548      1549      1546      1545      1548      1550
      1546      1545      1548      1551      1547      1545      1548      1549
      1547      1545      1548      1550      1547      1545      1548      1551
      1545      1548      1551      1552      1545      1548      1551      1553
      1545      1548      1551      1554      1549      1548      1551      1552
      1549      1548      1551      1553      1549      1548      1551      1554
      1550      1548      1551      1552      1550      1548      1551      1553
      1550      1548      1551      1554      1548      1551      1554      1555
      1548      1551      1554      1556      1552      1551      1554      1555
      1552      1551      1554      1556      1553      1551      1554      1555
      1553      1551      1554      1556      1551      1554      1556      1557
      1551      1554      1556      1558      1555      1554      1556      1557
      1555      1554      1556      1558      1554      1556      1558      1559
      1554      1556      1558      1560      1554      1556      1558      1561
      1557      1556      1558      1559      1557      1556      1558      1560
      1557      1556      1558      1561      1556      1558      1561      1562
      1556      1558      1561      1563      1556      1558      1561      1564
      1559      1558      1561      1562      1559      1558      1561      1563
      1559      1558      1561      1564      1560      1558      1561      1562
      1560      1558      1561      1563      1560      1558      1561      1564
      1558      1561      1564      1565      1558      1561      1564      1566
      1558      1561      1564      1567      1562      1561      1564      1565
      1562      1561      1564      1566      1562      1561      1564      1567
      1563      1561      1564      1565      1563      1561      1564      1566
      1563      1561      1564      1567      1561      1564      1567      1568
      1561      1564      1567      1569      1561      1564      1567      1570
      1565      1564      1567      1568      1565      1564      1567      1569
      1565      1564      1567      1570      1566      1564      1567      1568
      1566      1564      1567      1569      1566      1564      1567      1570
      1564      1567      1570      1571      1564      1567      1570      1572
      1564      1567      1570      1573      1568      1567      1570      1571
      1568      1567      1570      1572      1568      1567      1570      1573
      1569      1567      1570      1571      1569      1567      1570      1572
      1569      1567      1570      1573      1567      1570      1573      1574
      1567      1570      1573      1575      1567      1570      1573      1576
      1571      1570      1573      1574      1571      1570      1573      1575
      1571      1570      1573      1576      1572      1570      1573      1574
      1572      1570      1573      1575      1572      1570      1573      1576
      1570      1573      1576      1577      1570      1573      1576      1578
      1570      1573      1576      1579      1574      1573      1576      1577
      1574      1573      1576      1578      1574      1573      1576      1579
      1575      1573      1576      1577      1575      1573      1576      1578
      1575      1573      1576      1579      1573      1576      1579      1580
      1573      1576      1579      1581      1573      1576      1579      1582
      1577      1576      1579      1580      1577      1576      1579      1581
      1577      1576      1579      1582      1578      1576      1579      1580
      1578      1576      1579      1581      1578      1576      1579      1582
      1584      1583      1587      1588      1584      1583      1587      1589
      1584      1583      1587      1590      1585      1583      1587      1588
      1585      1583      1587      1589      1585      1583      1587      1590
      1586      1583      1587      1588      1586      1583      1587      1589
      1586      1583      1587      1590      1583      1587      1590      1591
      1583      1587      1590      1592      1583      1587      1590      1593
      1588      1587      1590      1591      1588      1587      1590      1592
      1588      1587      1590      1593      1589      1587      1590      1591
      1589      1587      1590      1592      1589      1587      1590      1593
      1587      1590      1593      1594      1587      1590      1593      1595
      1587      1590      1593      1596      1591      1590      1593      1594
      1591      1590      1593      1595      1591      1590      1593      1596
      1592      1590      1593      1594      1592      1590      1593      1595
      1592      1590      1593      1596      1590      1593      1596      1597
      1590      1593      1596      1598      1590      1593      1596      1599
      1594      1593      1596      1597      1594      1593      1596      1598
      1594      1593      1596      1599      1595      1593      1596      1597
      1595      1593      1596      1598      1595      1593      1596      1599
      1593      1596      1599      1600      1593      1596      1599      1601
      1593      1596      1599      1602      1597      1596      1599      1600
      1597      1596      1599      1601      1597      1596      1599      1602
      1598      1596      1599      1600      1598      1596      1599      1601
      1598      1596      1599      1602      1596      1599      1602      1603
      1596      1599      1602      1604      1596      1599      1602      1605
      1600      1599      1602      1603      1600      1599      1602      1604
      1600      1599      1602      1605      1601      1599      1602      1603
      1601      1599      1602      1604      1601      1599      1602      1605
      1599      1602      1605      1606      1599      1602      1605      1607
      1599      1602      1605      1608      1603      1602      1605      1606
      1603      1602      1605      1607      1603      1602      1605      1608
      1604      1602      1605      1606      1604      1602      1605      1607
      1604      1602      1605      1608      1602      1605      1608      1609
      1602      1605      1608      1610      1602      1605      1608      1611
      1606      1605      1608      1609      1606      1605      1608      1610
      1606      1605      1608      1611      1607      1605      1608      1609
      1607      1605      1608      1610      1607      1605      1608      1611
      1605      1608      1611      1612      1605      1608      1611      1613
      1605      1608      1611      1614      1609      1608      1611      1612
      1609      1608      1611      1613      1609      1608      1611      1614
      1610      1608      1611      1612      1610      1608      1611      1613
      1610      1608      1611      1614      1608      1611      1614      1615
      1608      1611      1614      1616      1608      1611      1614      1617
      1612      1611      1614      1615      1612      1611      1614      1616
      1612      1611      1614      1617      1613      1611      1614      1615
      1613      1611      1614      1616      1613      1611      1614      1617
      1611      1614      1617      1618      1611      1614      1617      1619
      1611      1614      1617      1620      1615      1614      1617      1618
      1615      1614      1617      1619      1615      1614      1617      1620
      1616      1614      1617      1618      1616      1614      1617      1619
      1616      1614      1617      1620      1614      1617      1620      1621
      1614      1617      1620      1622      1614      1617      1620      1623
      1618      1617      1620      1621      1618      1617      1620      1622
      1618      1617      1620      1623      1619      1617      1620      1621
      1619      1617      1620      1622      1619      1617      1620      1623
      1617      1620      1623      1624      1617      1620      1623      1625
      1617      1620      1623      1626      1621      1620      1623      1624
      1621      1620      1623      1625      1621      1620      1623      1626
      1622      1620      1623      1624      1622      1620      1623      1625
      1622      1620      1623      1626      1620      1623      1626      1629
      1620      1623      1626      1627      1620      1623      1626      1628
      1624      1623      1626      1629      1624      1623      1626      1627
      1624      1623      1626      1628      1625      1623      1626      1629
      1625      1623      1626      1627      1625      1623      1626      1628
      1630      1629      1626      1623      1631      1629      1626      1623
      1630      1629      1626      1627      1631      1629      1626      1627
      1630      1629      1626      1628      1631      1629      1626      1628
      1626      1629      1631      1632      1630      1629      1631      1632
      1629      1631      1632      1633      1629      1631      1632      1634
      1629      1631      1632      1635      1631      1632      1635      1636
      1631      1632      1635      1637      1631      1632      1635      1664
      1633      1632      1635      1636      1633      1632      1635      1637
      1633      1632      1635      1664      1634      1632      1635      1636
      1634      1632      1635      1637      1634      1632      1635      1664
      1632      1635      1637      1638      1632      1635      1637      1639
      1632      1635      1637      1640      1632      1635      1664      1665
      1636      1635      1637      1638      1636      1635      1637      1639
      1636      1635      1637      1640      1636      1635      1664      1665
      1638      1637      1635      1664      1639      1637      1635      1664
      1640      1637      1635      1664      1637      1635      1664      1665
      1635      1637      1640      1641      1638      1637      1640      1641
      1639      1637      1640      1641      1637      1640      1641      1642
      1637      1640      1641      1662      1637      1640      1641      1663
      1640      1641      1642      1643      1643      1642      1641      1662
      1643      1642      1641      1663      1641      1642      1643      1644
      1641      1642      1643      1645      1641      1642      1643      1646
      1642      1643      1646      1647      1642      1643      1646      1648
      1642      1643      1646      1649      1644      1643      1646      1647
      1644      1643      1646      1648      1644      1643      1646      1649
      1645      1643      1646      1647      1645      1643      1646      1648
      1645      1643      1646      1649      1643      1646      1649      1650
      1643      1646      1649      1654      1643      1646      1649      1658
      1647      1646      1649      1650      1647      1646      1649      1654
      1647      1646      1649      1658      1648      1646      1649      1650
      1648      1646      1649      1654      1648      1646      1649      1658
      1646      1649      1650      1651      1646      1649      1650      1652
      1646      1649      1650      1653      1646      1649      1654      1655
      1646      1649      1654      1656      1646      1649      1654      1657
      1646      1649      1658      1659      1646      1649      1658      1660
      1646      1649      1658      1661      1651      1650      1649      1654
      1652      1650      1649      1654      1653      1650      1649      1654
      1650      1649      1654      1655      1650      1649      1654      1656
      1650      1649      1654      1657      1651      1650      1649      1658
      1652      1650      1649      1658      1653      1650      1649      1658
      1650      1649      1658      1659      1650      1649      1658      1660
      1650      1649      1658      1661      1655      1654      1649      1658
      1656      1654      1649      1658      1657      1654      1649      1658
      1654      1649      1658      1659      1654      1649      1658      1660
      1654      1649      1658      1661      1635      1664      1665      1667
      1635      1664      1665      1666      1668      1667      1665      1664
      1669      1667      1665      1664      1670      1667      1665      1664
      1668      1667      1665      1666      1669      1667      1665      1666
      1670      1667      1665      1666      1665      1667      1670      1671
      1665      1667      1670      1672      1665      1667      1670      1673
      1668      1667      1670      1671      1668      1667      1670      1672
      1668      1667      1670      1673      1669      1667      1670      1671
      1669      1667      1670      1672      1669      1667      1670      1673
      1667      1670      1673      1674      1667      1670      1673      1675
      1667      1670      1673      1676      1671      1670      1673      1674
      1671      1670      1673      1675      1671      1670      1673      1676
      1672      1670      1673      1674      1672      1670      1673      1675
      1672      1670      1673      1676      1670      1673      1676      1677
      1670      1673      1676      1678      1670      1673      1676      1679
      1674      1673      1676      1677      1674      1673      1676      1678
      1674      1673      1676      1679      1675      1673      1676      1677
      1675      1673      1676      1678      1675      1673      1676      1679
      1673      1676      1679      1680      1673      1676      1679      1681
      1673      1676      1679      1682      1677      1676      1679      1680
      1677      1676      1679      1681      1677      1676      1679      1682
      1678      1676      1679      1680      1678      1676      1679      1681
      1678      1676      1679      1682      1676      1679      1682      1683
      1676      1679      1682      1684      1676      1679      1682      1685
      1680      1679      1682      1683      1680      1679      1682      1684
      1680      1679      1682      1685      1681      1679      1682      1683
      1681      1679      1682      1684      1681      1679      1682      1685
      1679      1682      1685      1686      1679      1682      1685      1687
      1679      1682      1685      1688      1683      1682      1685      1686
      1683      1682      1685      1687      1683      1682      1685      1688
      1684      1682      1685      1686      1684      1682      1685      1687
      1684      1682      1685      1688      1682      1685      1688      1689
      1682      1685      1688      1690      1686      1685      1688      1689
      1686      1685      1688      1690      1687      1685      1688      1689
      1687      1685      1688      1690      1685      1688      1690      1691
      1685      1688      1690      1692      1689      1688      1690      1691
      1689      1688      1690      1692      1688      1690      1692      1693
      1688      1690      1692      1694      1688      1690      1692      1695
      1691      1690      1692      1693      1691      1690      1692      1694
      1691      1690      1692      1695      1690      1692      1695      1696
      1690      1692      1695      1697      1690      1692      1695      1698
      1693      1692      1695      1696      1693      1692      1695      1697
      1693      1692      1695      1698      1694      1692      1695      1696
      1694      1692      1695      1697      1694      1692      1695      1698
      1692      1695      1698      1699      1692      1695      1698      1700
      1692      1695      1698      1701      1696      1695      1698      1699
      1696      1695      1698      1700      1696      1695      1698      1701
      1697      1695      1698      1699      1697      1695      1698      1700
      1697      1695      1698      1701      1695      1698      1701      1702
      1695      1698      1701      1703      1695      1698      1701      1704
      1699      1698      1701      1702      1699      1698      1701      1703
      1699      1698      1701      1704      1700      1698      1701      1702
      1700      1698      1701      1703      1700      1698      1701      1704
      1698      1701      1704      1705      1698      1701      1704      1706
      1698      1701      1704      1707      1702      1701      1704      1705
      1702      1701      1704      1706      1702      1701      1704      1707
      1703      1701      1704      1705      1703      1701      1704      1706
      1703      1701      1704      1707      1701      1704      1707      1708
      1701      1704      1707      1709      1701      1704      1707      1710
      1705      1704      1707      1708      1705      1704      1707      1709
      1705      1704      1707      1710      1706      1704      1707      1708
      1706      1704      1707      1709      1706      1704      1707      1710
      1704      1707      1710      1711      1704      1707      1710      1712
      1704      1707      1710      1713      1708      1707      1710      1711
      1708      1707      1710      1712      1708      1707      1710      1713
      1709      1707      1710      1711      1709      1707      1710      1712
      1709      1707      1710      1713      1707      1710      1713      1714
      1707      1710      1713      1715      1707      1710      1713      1716
      1711      1710      1713      1714      1711      1710      1713      1715
      1711      1710      1713      1716      1712      1710      1713      1714
      1712      1710      1713      1715      1712      1710      1713      1716
      1718      1717      1721      1722      1718      1717      1721      1723
      1718      1717      1721      1724      1719      1717      1721      1722
      1719      1717      1721      1723      1719      1717      1721      1724
      1720      1717      1721      1722      1720      1717      1721      1723
      1720      1717      1721      1724      1717      1721      1724      1725
      1717      1721      1724      1726      1717      1721      1724      1727
      1722      1721      1724      1725      1722      1721      1724      1726
      1722      1721      1724      1727      1723      1721      1724      1725
      1723      1721      1724      1726      1723      1721      1724      1727
      1721      1724      1727      1728      1721      1724      1727      1729
      1721      1724      1727      1730      1725      1724      1727      1728
      1725      1724      1727      1729      1725      1724      1727      1730
      1726      1724      1727      1728      1726      1724      1727      1729
      1726      1724      1727      1730      1724      1727      1730      1731
      1724      1727      1730      1732      1724      1727      1730      1733
      1728      1727      1730      1731      1728      1727      1730      1732
      1728      1727      1730      1733      1729      1727      1730      1731
      1729      1727      1730      1732      1729      1727      1730      1733
      1727      1730      1733      1734      1727      1730      1733      1735
      1727      1730      1733      1736      1731      1730      1733      1734
      1731      1730      1733      1735      1731      1730      1733      1736
      1732      1730      1733      1734      1732      1730      1733      1735
      1732      1730      1733      1736      1730      1733      1736      1737
      1730      1733      1736      1738      1730      1733      1736      1739
      1734      1733      1736      1737      1734      1733      1736      1738
      1734      1733      1736      1739      1735      1733      1736      1737
      1735      1733      1736      1738      1735      1733      1736      1739
      1733      1736      1739      1740      1733      1736      1739      1741
      1733      1736      1739      1742      1737      1736      1739      1740
      1737      1736      1739      1741      1737      1736      1739      1742
      1738      1736      1739      1740      1738      1736      1739      1741
      1738      1736      1739      1742      1736      1739      1742      1743
      1736      1739      1742      1744      1736      1739      1742      1745
      1740      1739      1742      1743      1740      1739      1742      1744
      1740      1739      1742      1745      1741      1739      1742      1743
      1741      1739      1742      1744      1741      1739      1742      1745
      1739      1742      1745      1746      1739      1742      1745      1747
      1739      1742      1745      1748      1743      1742      1745      1746
      1743      1742      1745      1747      1743      1742      1745      1748
      1744      1742      1745      1746      1744      1742      1745      1747
      1744      1742      1745      1748      1742      1745      1748      1749
      1742      1745      1748      1750      1742      1745      1748      1751
      1746      1745      1748      1749      1746      1745      1748      1750
      1746      1745      1748      1751      1747      1745      1748      1749
      1747      1745      1748      1750      1747      1745      1748      1751
      1745      1748      1751      1752      1745      1748      1751      1753
      1745      1748      1751      1754      1749      1748      1751      1752
      1749      1748      1751      1753      1749      1748      1751      1754
      1750      1748      1751      1752      1750      1748      1751      1753
      1750      1748      1751      1754      1748      1751      1754      1755
      1748      1751      1754      1756      1748      1751      1754      1757
      1752      1751      1754      1755      1752      1751      1754      1756
      1752      1751      1754      1757      1753      1751      1754      1755
      1753      1751      1754      1756      1753      1751      1754      1757
      1751      1754      1757      1758      1751      1754      1757      1759
      1751      1754      1757      1760      1755      1754      1757      1758
      1755      1754      1757      1759      1755      1754      1757      1760
      1756      1754      1757      1758      1756      1754      1757      1759
      1756      1754      1757      1760      1754      1757      1760      1763
      1754      1757      1760      1761      1754      1757      1760      1762
      1758      1757      1760      1763      1758      1757      1760      1761
      1758      1757      1760      1762      1759      1757      1760      1763
      1759      1757      1760      1761      1759      1757      1760      1762
      1764      1763      1760      1757      1765      1763      1760      1757
      1764      1763      1760      1761      1765      1763      1760      1761
      1764      1763      1760      1762      1765      1763      1760      1762
      1760      1763      1765      1766      1764      1763      1765      1766
      1763      1765      1766      1767      1763      1765      1766      1768
      1763      1765      1766      1769      1765      1766      1769      1770
      1765      1766      1769      1771      1765      1766      1769      1798
      1767      1766      1769      1770      1767      1766      1769      1771
      1767      1766      1769      1798      1768      1766      1769      1770
      1768      1766      1769      1771      1768      1766      1769      1798
      1766      1769      1771      1772      1766      1769      1771      1773
      1766      1769      1771      1774      1766      1769      1798      1799
      1770      1769      1771      1772      1770      1769      1771      1773
      1770      1769      1771      1774      1770      1769      1798      1799
      1772      1771      1769      1798      1773      1771      1769      1798
      1774      1771      1769      1798      1771      1769      1798      1799
      1769      1771      1774      1775      1772      1771      1774      1775
      1773      1771      1774      1775      1771      1774      1775      1776
      1771      1774      1775      1796      1771      1774      1775      1797
      1774      1775      1776      1777      1777      1776      1775      1796
      1777      1776      1775      1797      1775      1776      1777      1778
      1775      1776      1777      1779      1775      1776      1777      1780
      1776      1777      1780      1781      1776      1777      1780      1782
      1776      1777      1780      1783      1778      1777      1780      1781
      1778      1777      1780      1782      1778      1777      1780      1783
      1779      1777      1780      1781      1779      1777      1780      1782
      1779      1777      1780      1783      1777      1780      1783      1784
      1777      1780      1783      1788      1777      1780      1783      1792
      1781      1780      1783      1784      1781      1780      1783      1788
      1781      1780      1783      1792      1782      1780      1783      1784
      1782      1780      1783      1788      1782      1780      1783      1792
      1780      1783      1784      1785      1780      1783      1784      1786
      1780      1783      1784      1787      1780      1783      1788      1789
      1780      1783      1788      1790      1780      1783      1788      1791
      1780      1783      1792      1793      1780      1783      1792      1794
      1780      1783      1792      1795      1785      1784      1783      1788
      1786      1784      1783      1788      1787      1784      1783      1788
      1784      1783      1788      1789      1784      1783      1788      1790
      1784      1783      1788      1791      1785      1784      1783      1792
      1786      1784      1783      1792      1787      1784      1783      1792
      1784      1783      1792      1793      1784      1783      1792      1794
      1784      1783      1792      1795      1789      1788      1783      1792
      1790      1788      1783      1792      1791      1788      1783      1792
      1788      1783      1792      1793      1788      1783      1792      1794
      1788      1783      1792      1795      1769      1798      1799      1801
      1769      1798      1799      1800      1802      1801      1799      1798
      1803      1801      1799      1798      1804      1801      1799      1798
      1802      1801      1799      1800      1803      1801      1799      1800
      1804      1801      1799      1800      1799      1801      1804      1805
      1799      1801      1804      1806      1799      1801      1804      1807
      1802      1801      1804      1805      1802      1801      1804      1806
      1802      1801      1804      1807      1803      1801      1804      1805
      1803      1801      1804      1806      1803      1801      1804      1807
      1801      1804      1807      1808      1801      1804      1807      1809
      1801      1804      1807      1810      1805      1804      1807      1808
      1805      1804      1807      1809      1805      1804      1807      1810
      1806      1804      1807      1808      1806      1804      1807      1809
      1806      1804      1807      1810      1804      1807      1810      1811
      1804      1807      1810      1812      1804      1807      1810      1813
      1808      1807      1810      1811      1808      1807      1810      1812
      1808      1807      1810      1813      1809      1807      1810      1811
      1809      1807      1810      1812      1809      1807      1810      1813
      1807      1810      1813      1814      1807      1810      1813      1815
      1807      1810      1813      1816      1811      1810      1813      1814
      1811      1810      1813      1815      1811      1810      1813      1816
      1812      1810      1813      1814      1812      1810      1813      1815
      1812      1810      1813      1816      1810      1813      1816      1817
      1810      1813      1816      1818      1810      1813      1816      1819
      1814      1813      1816      1817      1814      1813      1816      1818
      1814      1813      1816      1819      1815      1813      1816      1817
      1815      1813      1816      1818      1815      1813      1816      1819
      1813      1816      1819      1820      1813      1816      1819      1821
      1813      1816      1819      1822      1817      1816      1819      1820
      1817      1816      1819      1821      1817      1816      1819      1822
      1818      1816      1819      1820      1818      1816      1819      1821
      1818      1816      1819      1822      1816      1819      1822      1823
      1816      1819      1822      1824      1820      1819      1822      1823
      1820      1819      1822      1824      1821      1819      1822      1823
      1821      1819      1822      1824      1819      1822      1824      1825
      1819      1822      1824      1826      1823      1822      1824      1825
      1823      1822      1824      1826      1822      1824      1826      1827
      1822      1824      1826      1828      1822      1824      1826      1829
      1825      1824      1826      1827      1825      1824      1826      1828
      1825      1824      1826      1829      1824      1826      1829      1830
      1824      1826      1829      1831      1824      1826      1829      1832
      1827      1826      1829      1830      1827      1826      1829      1831
      1827      1826      1829      1832      1828      1826      1829      1830
      1828      1826      1829      1831      1828      1826      1829      1832
      1826      1829      1832      1833      1826      1829      1832      1834
      1826      1829      1832      1835      1830      1829      1832      1833
      1830      1829      1832      1834      1830      1829      1832      1835
      1831      1829      1832      1833      1831      1829      1832      1834
      1831      1829      1832      1835      1829      1832      1835      1836
      1829      1832      1835      1837      1829      1832      1835      1838
      1833      1832      1835      1836      1833      1832      1835      1837
      1833      1832      1835      1838      1834      1832      1835      1836
      1834      1832      1835      1837      1834      1832      1835      1838
      1832      1835      1838      1839      1832      1835      1838      1840
      1832      1835      1838      1841      1836      1835      1838      1839
      1836      1835      1838      1840      1836      1835      1838      1841
      1837      1835      1838      1839      1837      1835      1838      1840
      1837      1835      1838      1841      1835      1838      1841      1842
      1835      1838      1841      1843      1835      1838      1841      1844
      1839      1838      1841      1842      1839      1838      1841      1843
      1839      1838      1841      1844      1840      1838      1841      1842
      1840      1838      1841      1843      1840      1838      1841      1844
      1838      1841      1844      1845      1838      1841      1844      1846
      1838      1841      1844      1847      1842      1841      1844      1845
      1842      1841      1844      1846      1842      1841      1844      1847
      1843      1841      1844      1845      1843      1841      1844      1846
      1843      1841      1844      1847      1841      1844      1847      1848
      1841      1844      1847      1849      1841      1844      1847      1850
      1845      1844      1847      1848      1845      1844      1847      1849
      1845      1844      1847      1850      1846      1844      1847      1848
      1846      1844      1847      1849      1846      1844      1847      1850
      1852      1851      1855      1856      1852      1851      1855      1857
      1852      1851      1855      1858      1853      1851      1855      1856
      1853      1851      1855      1857      1853      1851      1855      1858
      1854      1851      1855      1856      1854      1851      1855      1857
      1854      1851      1855      1858      1851      1855      1858      1859
      1851      1855      1858      1860      1851      1855      1858      1861
      1856      1855      1858      1859      1856      1855      1858      1860
      1856      1855      1858      1861      1857      1855      1858      1859
      1857      1855      1858      1860      1857      1855      1858      1861
      1855      1858      1861      1862      1855      1858      1861      1863
      1855      1858      1861      1864      1859      1858      1861      1862
      1859      1858      1861      1863      1859      1858      1861      1864
      1860      1858      1861      1862      1860      1858      1861      1863
      1860      1858      1861      1864      1858      1861      1864      1865
      1858      1861      1864      1866      1858      1861      1864      1867
      1862      1861      1864      1865      1862      1861      1864      1866
      1862      1861      1864      1867      1863      1861      1864      1865
      1863      1861      1864      1866      1863      1861      1864      1867
      1861      1864      1867      1868      1861      1864      1867      1869
      1861      1864      1867      1870      1865      1864      1867      1868
      1865      1864      1867      1869      1865      1864      1867      1870
      1866      1864      1867      1868      1866      1864      1867      1869
      1866      1864      1867      1870      1864      1867      1870      1871
      1864      1867      1870      1872      1864      1867      1870      1873
      1868      1867      1870      1871      1868      1867      1870      1872
      1868      1867      1870      1873      1869      1867      1870      1871
      1869      1867      1870      1872      1869      1867      1870      1873
      1867      1870      1873      1874      1867      1870      1873      1875
      1867      1870      1873      1876      1871      1870      1873      1874
      1871      1870      1873      1875      1871      1870      1873      1876
      1872      1870      1873      1874      1872      1870      1873      1875
      1872      1870      1873      1876      1870      1873      1876      1877
      1870      1873      1876      1878      1870      1873      1876      1879
      1874      1873      1876      1877      1874      1873      1876      1878
      1874      1873      1876      1879      1875      1873      1876      1877
      1875      1873      1876      1878      1875      1873      1876      1879
      1873      1876      1879      1880      1873      1876      1879      1881
      1873      1876      1879      1882      1877      1876      1879      1880
      1877      1876      1879      1881      1877      1876      1879      1882
      1878      1876      1879      1880      1878      1876      1879      1881
      1878      1876      1879      1882      1876      1879      1882      1883
      1876      1879      1882      1884      1876      1879      1882      1885
      1880      1879      1882      1883      1880      1879      1882      1884
      1880      1879      1882      1885      1881      1879      1882      1883
      1881      1879      1882      1884      1881      1879      1882      1885
      1879      1882      1885      1886      1879      1882      1885      1887
      1879      1882      1885      1888      1883      1882      1885      1886
      1883      1882      1885      1887      1883      1882      1885      1888
      1884      1882      1885      1886      1884      1882      1885      1887
      1884      1882      1885      1888      1882      1885      1888      1889
      1882      1885      1888      1890      1882      1885      1888      1891
      1886      1885      1888      1889      1886      1885      1888      1890
      1886      1885      1888      1891      1887      1885      1888      1889
      1887      1885      1888      1890      1887      1885      1888      1891
      1885      1888      1891      1892      1885      1888      1891      1893
      1885      1888      1891      1894      1889      1888      1891      1892
      1889      1888      1891      1893      1889      1888      1891      1894
      1890      1888      1891      1892      1890      1888      1891      1893
      1890      1888      1891      1894      1888      1891      1894      1897
      1888      1891      1894      1895      1888      1891      1894      1896
      1892      1891      1894      1897      1892      1891      1894      1895
      1892      1891      1894      1896      1893      1891      1894      1897
      1893      1891      1894      1895      1893      1891      1894      1896
      1898      1897      1894      1891      1899      1897      1894      1891
      1898      1897      1894      1895      1899      1897      1894      1895
      1898      1897      1894      1896      1899      1897      1894      1896
      1894      1897      1899      1900      1898      1897      1899      1900
      1897      1899      1900      1901      1897      1899      1900      1902
      1897      1899      1900      1903      1899      1900      1903      1904
      1899      1900      1903      1905      1899      1900      1903      1932
      1901      1900      1903      1904      1901      1900      1903      1905
      1901      1900      1903      1932      1902      1900      1903      1904
      1902      1900      1903      1905      1902      1900      1903      1932
      1900      1903      1905      1906      1900      1903      1905      1907
      1900      1903      1905      1908      1900      1903      1932      1933
      1904      1903      1905      1906      1904      1903      1905      1907
      1904      1903      1905      1908      1904      1903      1932      1933
      1906      1905      1903      1932      1907      1905      1903      1932
      1908      1905      1903      1932      1905      1903      1932      1933
      1903      1905      1908      1909      1906      1905      1908      1909
      1907      1905      1908      1909      1905      1908      1909      1910
      1905      1908      1909      1930      1905      1908      1909      1931
      1908      1909      1910      1911      1911      1910      1909      1930
      1911      1910      1909      1931      1909      1910      1911      1912
      1909      1910      1911      1913      1909      1910      1911      1914
      1910      1911      1914      1915      1910      1911      1914      1916
      1910      1911      1914      1917      1912      1911      1914      1915
      1912      1911      1914      1916      1912      1911      1914      1917
      1913      1911      1914      1915      1913      1911      1914      1916
      1913      1911      1914      1917      1911      1914      1917      1918
      1911      1914      1917      1922      1911      1914      1917      1926
      1915      1914      1917      1918      1915      1914      1917      1922
      1915      1914      1917      1926      1916      1914      1917      1918
      1916      1914      1917      1922      1916      1914      1917      1926
      1914      1917      1918      1919      1914      1917      1918      1920
      1914      1917      1918      1921      1914      1917      1922      1923
      1914      1917      1922      1924      1914      1917      1922      1925
      1914      1917      1926      1927      1914      1917      1926      1928
      1914      1917      1926      1929      1919      1918      1917      1922
      1920      1918      1917      1922      1921      1918      1917      1922
      1918      1917      1922      1923      1918      1917      1922      1924
      1918      1917      1922      1925      1919      1918      1917      1926
      1920      1918      1917      1926      1921      1918      1917      1926
      1918      1917      1926      1927      1918      1917      1926      1928
      1918      1917      1926      1929      1923      1922      1917      1926
      1924      1922      1917      1926      1925      1922      1917      1926
      1922      1917      1926      1927      1922      1917      1926      1928
      1922      1917      1926      1929      1903      1932      1933      1935
      1903      1932      1933      1934      1936      1935      1933      1932
      1937      1935      1933      1932      1938      1935      1933      1932
      1936      1935      1933      1934      1937      1935      1933      1934
      1938      1935      1933      1934      1933      1935      1938      1939
      1933      1935      1938      1940      1933      1935      1938      1941
      1936      1935      1938      1939      1936      1935      1938      1940
      1936      1935      1938      1941      1937      1935      1938      1939
      1937      1935      1938      1940      1937      1935      1938      1941
      1935      1938      1941      1942      1935      1938      1941      1943
      1935      1938      1941      1944      1939      1938      1941      1942
      1939      1938      1941      1943      1939      1938      1941      1944
      1940      1938      1941      1942      1940      1938      1941      1943
      1940      1938      1941      1944      1938      1941      1944      1945
      1938      1941      1944      1946      1938      1941      1944      1947
      1942      1941      1944      1945      1942      1941      1944      1946
      1942      1941      1944      1947      1943      1941      1944      1945
      1943      1941      1944      1946      1943      1941      1944      1947
      1941      1944      1947      1948      1941      1944      1947      1949
      1941      1944      1947      1950      1945      1944      1947      1948
      1945      1944      1947      1949      1945      1944      1947      1950
      1946      1944      1947      1948      1946      1944      1947      1949
      1946      1944      1947      1950      1944      1947      1950      1951
      1944      1947      1950      1952      1944      1947      1950      1953
      1948      1947      1950      1951      1948      1947      1950      1952
      1948      1947      1950      1953      1949      1947      1950      1951
      1949      1947      1950      1952      1949      1947      1950      1953
      1947      1950      1953      1954      1947      1950      1953      1955
      1947      1950      1953      1956      1951      1950      1953      1954
      1951      1950      1953      1955      1951      1950      1953      1956
      1952      1950      1953      1954      1952      1950      1953      1955
      1952      1950      1953      1956      1950      1953      1956      1957
      1950      1953      1956      1958      1954      1953      1956      1957
      1954      1953      1956      1958      1955      1953      1956      1957
      1955      1953      1956      1958      1953      1956      1958      1959
      1953      1956      1958      1960      1957      1956      1958      1959
      1957      1956      1958      1960      1956      1958      1960      1961
      1956      1958      1960      1962      1956      1958      1960      1963
      1959      1958      1960      1961      1959      1958      1960      1962
      1959      1958      1960      1963      1958      1960      1963      1964
      1958      1960      1963      1965      1958      1960      1963      1966
      1961      1960      1963      1964      1961      1960      1963      1965
      1961      1960      1963      1966      1962      1960      1963      1964
      1962      1960      1963      1965      1962      1960      1963      1966
      1960      1963      1966      1967      1960      1963      1966      1968
      1960      1963      1966      1969      1964      1963      1966      1967
      1964      1963      1966      1968      1964      1963      1966      1969
      1965      1963      1966      1967      1965      1963      1966      1968
      1965      1963      1966      1969      1963      1966      1969      1970
      1963      1966      1969      1971      1963      1966      1969      1972
      1967      1966      1969      1970      1967      1966      1969      1971
      1967      1966      1969      1972      1968      1966      1969      1970
      1968      1966      1969      1971      1968      1966      1969      1972
      1966      1969      1972      1973      1966      1969      1972      1974
      1966      1969      1972      1975      1970      1969      1972      1973
      1970      1969      1972      1974      1970      1969      1972      1975
      1971      1969      1972      1973      1971      1969      1972      1974
      1971      1969      1972      1975      1969      1972      1975      1976
      1969      1972      1975      1977      1969      1972      1975      1978
      1973      1972      1975      1976      1973      1972      1975      1977
      1973      1972      1975      1978      1974      1972      1975      1976
      1974      1972      1975      1977      1974      1972      1975      1978
      1972      1975      1978      1979      1972      1975      1978      1980
      1972      1975      1978      1981      1976      1975      1978      1979
      1976      1975      1978      1980      1976      1975      1978      1981
      1977      1975      1978      1979      1977      1975      1978      1980
      1977      1975      1978      1981      1975      1978      1981      1982
      1975      1978      1981      1983      1975      1978      1981      1984
      1979      1978      1981      1982      1979      1978      1981      1983
      1979      1978      1981      1984      1980      1978      1981      1982
      1980      1978      1981      1983      1980      1978      1981      1984
      1986      1985      1989      1990      1986      1985      1989      1991
      1986      1985      1989      1992      1987      1985      1989      1990
      1987      1985      1989      1991      1987      1985      1989      1992
      1988      1985      1989      1990      1988      1985      1989      1991
      1988      1985      1989      1992      1985      1989      1992      1993
      1985      1989      1992      1994      1985      1989      1992      1995
      1990      1989      1992      1993      1990      1989      1992      1994
      1990      1989      1992      1995      1991      1989      1992      1993
      1991      1989      1992      1994      1991      1989      1992      1995
      1989      1992      1995      1996      1989      1992      1995      1997
      1989      1992      1995      1998      1993      1992      1995      1996
      1993      1992      1995      1997      1993      1992      1995      1998
      1994      1992      1995      1996      1994      1992      1995      1997
      1994      1992      1995      1998      1992      1995      1998      1999
      1992      1995      1998      2000      1992      1995      1998      2001
      1996      1995      1998      1999      1996      1995      1998      2000
      1996      1995      1998      2001      1997      1995      1998      1999
      1997      1995      1998      2000      1997      1995      1998      2001
      1995      1998      2001      2002      1995      1998      2001      2003
      1995      1998      2001      2004      1999      1998      2001      2002
      1999      1998      2001      2003      1999      1998      2001      2004
      2000      1998      2001      2002      2000      1998      2001      2003
      2000      1998      2001      2004      1998      2001      2004      2005
      1998      2001      2004      2006      1998      2001      2004      2007
      2002      2001      2004      2005      2002      2001      2004      2006
      2002      2001      2004      2007      2003      2001      2004      2005
      2003      2001      2004      2006      2003      2001      2004      2007
      2001      2004      2007      2008      2001      2004      2007      2009
      2001      2004      2007      2010      2005      2004      2007      2008
      2005      2004      2007      2009      2005      2004      2007      2010
      2006      2004      2007      2008      2006      2004      2007      2009
      2006      2004      2007      2010      2004      2007      2010      2011
      2004      2007      2010      2012      2004      2007      2010      2013
      2008      2007      2010      2011      2008      2007      2010      2012
      2008      2007      2010      2013      2009      2007      2010      2011
      2009      2007      2010      2012      2009      2007      2010      2013
      2007      2010      2013      2014      2007      2010      2013      2015
      2007      2010      2013      2016      2011      2010      2013      2014
      2011      2010      2013      2015      2011      2010      2013      2016
      2012      2010      2013      2014      2012      2010      2013      2015
      2012      2010      2013      2016      2010      2013      2016      2017
      2010      2013      2016      2018      2010      2013      2016      2019
      2014      2013      2016      2017      2014      2013      2016      2018
      2014      2013      2016      2019      2015      2013      2016      2017
      2015      2013      2016      2018      2015      2013      2016      2019
      2013      2016      2019      2020      2013      2016      2019      2021
      2013      2016      2019      2022      2017      2016      2019      2020
      2017      2016      2019      2021      2017      2016      2019      2022
      2018      2016      2019      2020      2018      2016      2019      2021
      2018      2016      2019      2022      2016      2019      2022      2023
      2016      2019      2022      2024      2016      2019      2022      2025
      2020      2019      2022      2023      2020      2019      2022      2024
      2020      2019      2022      2025      2021      2019      2022      2023
      2021      2019      2022      2024      2021      2019      2022      2025
      2019      2022      2025      2026      2019      2022      2025      2027
      2019      2022      2025      2028      2023      2022      2025      2026
      2023      2022      2025      2027      2023      2022      2025      2028
      2024      2022      2025      2026      2024      2022      2025      2027
      2024      2022      2025      2028      2022      2025      2028      2031
      2022      2025      2028      2029      2022      2025      2028      2030
      2026      2025      2028      2031      2026      2025      2028      2029
      2026      2025      2028      2030      2027      2025      2028      2031
      2027      2025      2028      2029      2027      2025      2028      2030
      2032      2031      2028      2025      2033      2031      2028      2025
      2032      2031      2028      2029      2033      2031      2028      2029
      2032      2031      2028      2030      2033      2031      2028      2030
      2028      2031      2033      2034      2032      2031      2033      2034
      2031      2033      2034      2035      2031      2033      2034      2036
      2031      2033      2034      2037      2033      2034      2037      2038
      2033      2034      2037      2039      2033      2034      2037      2066
      2035      2034      2037      2038      2035      2034      2037      2039
      2035      2034      2037      2066      2036      2034      2037      2038
      2036      2034      2037      2039      2036      2034      2037      2066
      2034      2037      2039      2040      2034      2037      2039      2041
      2034      2037      2039      2042      2034      2037      2066      2067
      2038      2037      2039      2040      2038      2037      2039      2041
      2038      2037      2039      2042      2038      2037      2066      2067
      2040      2039      2037      2066      2041      2039      2037      2066
      2042      2039      2037      2066      2039      2037      2066      2067
      2037      2039      2042      2043      2040      2039      2042      2043
      2041      2039      2042      2043      2039      2042      2043      2044
      2039      2042      2043      2064      2039      2042      2043      2065
      2042      2043      2044      2045      2045      2044      2043      2064
      2045      2044      2043      2065      2043      2044      2045      2046
      2043      2044      2045      2047      2043      2044      2045      2048
      2044      2045      2048      2049      2044      2045      2048      2050
      2044      2045      2048      2051      2046      2045      2048      2049
      2046      2045      2048      2050      2046      2045      2048      2051
      2047      2045      2048      2049      2047      2045      2048      2050
      2047      2045      2048      2051      2045      2048      2051      2052
      2045      2048      2051      2056      2045      2048      2051      2060
      2049      2048      2051      2052      2049      2048      2051      2056
      2049      2048      2051      2060      2050      2048      2051      2052
      2050      2048      2051      2056      2050      2048      2051      2060
      2048      2051      2052      2053      2048      2051      2052      2054
      2048      2051      2052      2055      2048      2051      2056      2057
      2048      2051      2056      2058      2048      2051      2056      2059
      2048      2051      2060      2061      2048      2051      2060      2062
      2048      2051      2060      2063      2053      2052      2051      2056
      2054      2052      2051      2056      2055      2052      2051      2056
      2052      2051      2056      2057      2052      2051      2056      2058
      2052      2051      2056      2059      2053      2052      2051      2060
      2054      2052      2051      2060      2055      2052      2051      2060
      2052      2051      2060      2061      2052      2051      2060      2062
      2052      2051      2060      2063      2057      2056      2051      2060
      2058      2056      2051      2060      2059      2056      2051      2060
      2056      2051      2060      2061      2056      2051      2060      2062
      2056      2051      2060      2063      2037      2066      2067      2069
      2037      2066      2067      2068      2070      2069      2067      2066
      2071      2069      2067      2066      2072      2069      2067      2066
      2070      2069      2067      2068      2071      2069      2067      2068
      2072      2069      2067      2068      2067      2069      2072      2073
      2067      2069      2072      2074      2067      2069      2072      2075
      2070      2069      2072      2073      2070      2069      2072      2074
      2070      2069      2072      2075      2071      2069      2072      2073
      2071      2069      2072      2074      2071      2069      2072      2075
      2069      2072      2075      2076      2069      2072      2075      2077
      2069      2072      2075      2078      2073      2072      2075      2076
      2073      2072      2075      2077      2073      2072      2075      2078
      2074      2072      2075      2076      2074      2072      2075      2077
      2074      2072      2075      2078      2072      2075      2078      2079
      2072      2075      2078      2080      2072      2075      2078      2081
      2076      2075      2078      2079      2076      2075      2078      2080
      2076      2075      2078      2081      2077      2075      2078      2079
      2077      2075      2078      2080      2077      2075      2078      2081
      2075      2078      2081      2082      2075      2078      2081      2083
      2075      2078      2081      2084      2079      2078      2081      2082
      2079      2078      2081      2083      2079      2078      2081      2084
      2080      2078      2081      2082      2080      2078      2081      2083
      2080      2078      2081      2084      2078      2081      2084      2085
      2078      2081      2084      2086      2078      2081      2084      2087
      2082      2081      2084      2085      2082      2081      2084      2086
      2082      2081      2084      2087      2083      2081      2084      2085
      2083      2081      2084      2086      2083      2081      2084      2087
      2081      2084      2087      2088      2081      2084      2087      2089
      2081      2084      2087      2090      2085      2084      2087      2088
      2085      2084      2087      2089      2085      2084      2087      2090
      2086      2084      2087      2088      2086      2084      2087      2089
      2086      2084      2087      2090      2084      2087      2090      2091
      2084      2087      2090      2092      2088      2087      2090      2091
      2088      2087      2090      2092      2089      2087      2090      2091
      2089      2087      2090      2092      2087      2090      2092      2093
      2087      2090      2092      2094      2091      2090      2092      2093
      2091      2090      2092      2094      2090      2092      2094      2095
      2090      2092      2094      2096      2090      2092      2094      2097
      2093      2092      2094      2095      2093      2092      2094      2096
      2093      2092      2094      2097      2092      2094      2097      2098
      2092      2094      2097      2099      2092      2094      2097      2100
      2095      2094      2097      2098      2095      2094      2097      2099
      2095      2094      2097      2100      2096      2094      2097      2098
      2096      2094      2097      2099      2096      2094      2097      2100
      2094      2097      2100      2101      2094      2097      2100      2102
      2094      2097      2100      2103      2098      2097      2100      2101
      2098      2097      2100      2102      2098      2097      2100      2103
      2099      2097      2100      2101      2099      2097      2100      2102
      2099      2097      2100      2103      2097      2100      2103      2104
      2097      2100      2103      2105      2097      2100      2103      2106
      2101      2100      2103      2104      2101      2100      2103      2105
      2101      2100      2103      2106      2102      2100      2103      2104
      2102      2100      2103      2105      2102      2100      2103      2106
      2100      2103      2106      2107      2100      2103      2106      2108
      2100      2103      2106      2109      2104      2103      2106      2107
      2104      2103      2106      2108      2104      2103      2106      2109
      2105      2103      2106      2107      2105      2103      2106      2108
      2105      2103      2106      2109      2103      2106      2109      2110
      2103      2106      2109      2111      2103      2106      2109      2112
      2107      2106      2109      2110      2107      2106      2109      2111
      2107      2106      2109      2112      2108      2106      2109      2110
      2108      2106      2109      2111      2108      2106      2109      2112
      2106      2109      2112      2113      2106      2109      2112      2114
      2106      2109      2112      2115      2110      2109      2112      2113
      2110      2109      2112      2114      2110      2109      2112      2115
      2111      2109      2112      2113      2111      2109      2112      2114
      2111      2109      2112      2115      2109      2112      2115      2116
      2109      2112      2115      2117      2109      2112      2115      2118
      2113      2112      2115      2116      2113      2112      2115      2117
      2113      2112      2115      2118      2114      2112      2115      2116
      2114      2112      2115      2117      2114      2112      2115      2118
      2120      2119      2123      2124      2120      2119      2123      2125
      2120      2119      2123      2126      2121      2119      2123      2124
      2121      2119      2123      2125      2121      2119      2123      2126
      2122      2119      2123      2124      2122      2119      2123      2125
      2122      2119      2123      2126      2119      2123      2126      2127
      2119      2123      2126      2128      2119      2123      2126      2129
      2124      2123      2126      2127      2124      2123      2126      2128
      2124      2123      2126      2129      2125      2123      2126      2127
      2125      2123      2126      2128      2125      2123      2126      2129
      2123      2126      2129      2130      2123      2126      2129      2131
      2123      2126      2129      2132      2127      2126      2129      2130
      2127      2126      2129      2131      2127      2126      2129      2132
      2128      2126      2129      2130      2128      2126      2129      2131
      2128      2126      2129      2132      2126      2129      2132      2133
      2126      2129      2132      2134      2126      2129      2132      2135
      2130      2129      2132      2133      2130      2129      2132      2134
      2130      2129      2132      2135      2131      2129      2132      2133
      2131      2129      2132      2134      2131      2129      2132      2135
      2129      2132      2135      2136      2129      2132      2135      2137
      2129      2132      2135      2138      2133      2132      2135      2136
      2133      2132      2135      2137      2133      2132      2135      2138
      2134      2132      2135      2136      2134      2132      2135      2137
      2134      2132      2135      2138      2132      2135      2138      2139
      2132      2135      2138      2140      2132      2135      2138      2141
      2136      2135      2138      2139      2136      2135      2138      2140
      2136      2135      2138      2141      2137      2135      2138      2139
      2137      2135      2138      2140      2137      2135      2138      2141
      2135      2138      2141      2142      2135      2138      2141      2143
      2135      2138      2141      2144      2139      2138      2141      2142
      2139      2138      2141      2143      2139      2138      2141      2144
      2140      2138      2141      2142      2140      2138      2141      2143
      2140      2138      2141      2144      2138      2141      2144      2145
      2138      2141      2144      2146      2138      2141      2144      2147
      2142      2141      2144      2145      2142      2141      2144      2146
      2142      2141      2144      2147      2143      2141      2144      2145
      2143      2141      2144      2146      2143      2141      2144      2147
      2141      2144      2147      2148      2141      2144      2147      2149
      2141      2144      2147      2150      2145      2144      2147      2148
      2145      2144      2147      2149      2145      2144      2147      2150
      2146      2144      2147      2148      2146      2144      2147      2149
      2146      2144      2147      2150      2144      2147      2150      2151
      2144      2147      2150      2152      2144      2147      2150      2153
      2148      2147      2150      2151      2148      2147      2150      2152
      2148      2147      2150      2153      2149      2147      2150      2151
      2149      2147      2150      2152      2149      2147      2150      2153
      2147      2150      2153      2154      2147      2150      2153      2155
      2147      2150      2153      2156      2151      2150      2153      2154
      2151      2150      2153      2155      2151      2150      2153      2156
      2152      2150      2153      2154      2152      2150      2153      2155
      2152      2150      2153      2156      2150      2153      2156      2157
      2150      2153      2156      2158      2150      2153      2156      2159
      2154      2153      2156      2157      2154      2153      2156      2158
      2154      2153      2156      2159      2155      2153      2156      2157
      2155      2153      2156      2158      2155      2153      2156      2159
      2153      2156      2159      2160      2153      2156      2159      2161
      2153      2156      2159      2162      2157      2156      2159      2160
      2157      2156      2159      2161      2157      2156      2159      2162
      2158      2156      2159      2160      2158      2156      2159      2161
      2158      2156      2159      2162      2156      2159      2162      2165
      2156      2159      2162      2163      2156      2159      2162      2164
      2160      2159      2162      2165      2160      2159      2162      2163
      2160      2159      2162      2164      2161      2159      2162      2165
      2161      2159      2162      2163      2161      2159      2162      2164
      2166      2165      2162      2159      2167      2165      2162      2159
      2166      2165      2162      2163      2167      2165      2162      2163
      2166      2165      2162      2164      2167      2165      2162      2164
      2162      2165      2167      2168      2166      2165      2167      2168
      2165      2167      2168      2169      2165      2167      2168      2170
      2165      2167      2168      2171      2167      2168      2171      2172
      2167      2168      2171      2173      2167      2168      2171      2200
      2169      2168      2171      2172      2169      2168      2171      2173
      2169      2168      2171      2200      2170      2168      2171      2172
      2170      2168      2171      2173      2170      2168      2171      2200
      2168      2171      2173      2174      2168      2171      2173      2175
      2168      2171      2173      2176      2168      2171      2200      2201
      2172      2171      2173      2174      2172      2171      2173      2175
      2172      2171      2173      2176      2172      2171      2200      2201
      2174      2173      2171      2200      2175      2173      2171      2200
      2176      2173      2171      2200      2173      2171      2200      2201
      2171      2173      2176      2177      2174      2173      2176      2177
      2175      2173      2176      2177      2173      2176      2177      2178
      2173      2176      2177      2198      2173      2176      2177      2199
      2176      2177      2178      2179      2179      2178      2177      2198
      2179      2178      2177      2199      2177      2178      2179      2180
      2177      2178      2179      2181      2177      2178      2179      2182
      2178      2179      2182      2183      2178      2179      2182      2184
      2178      2179      2182      2185      2180      2179      2182      2183
      2180      2179      2182      2184      2180      2179      2182      2185
      2181      2179      2182      2183      2181      2179      2182      2184
      2181      2179      2182      2185      2179      2182      2185      2186
      2179      2182      2185      2190      2179      2182      2185      2194
      2183      2182      2185      2186      2183      2182      2185      2190
      2183      2182      2185      2194      2184      2182      2185      2186
      2184      2182      2185      2190      2184      2182      2185      2194
      2182      2185      2186      2187      2182      2185      2186      2188
      2182      2185      2186      2189      2182      2185      2190      2191
      2182      2185      2190      2192      2182      2185      2190      2193
      2182      2185      2194      2195      2182      2185      2194      2196
      2182      2185      2194      2197      2187      2186      2185      2190
      2188      2186      2185      2190      2189      2186      2185      2190
      2186      2185      2190      2191      2186      2185      2190      2192
      2186      2185      2190      2193      2187      2186      2185      2194
      2188      2186      2185      2194      2189      2186      2185      2194
      2186      2185      2194      2195      2186      2185      2194      2196
      2186      2185      2194      2197      2191      2190      2185      2194
      2192      2190      2185      2194      2193      2190      2185      2194
      2190      2185      2194      2195      2190      2185      2194      2196
      2190      2185      2194      2197      2171      2200      2201      2203
      2171      2200      2201      2202      2204      2203      2201      2200
      2205      2203      2201      2200      2206      2203      2201      2200
      2204      2203      2201      2202      2205      2203      2201      2202
      2206      2203      2201      2202      2201      2203      2206      2207
      2201      2203      2206      2208      2201      2203      2206      2209
      2204      2203      2206      2207      2204      2203      2206      2208
      2204      2203      2206      2209      2205      2203      2206      2207
      2205      2203      2206      2208      2205      2203      2206      2209
      2203      2206      2209      2210      2203      2206      2209      2211
      2203      2206      2209      2212      2207      2206      2209      2210
      2207      2206      2209      2211      2207      2206      2209      2212
      2208      2206      2209      2210      2208      2206      2209      2211
      2208      2206      2209      2212      2206      2209      2212      2213
      2206      2209      2212      2214      2206      2209      2212      2215
      2210      2209      2212      2213      2210      2209      2212      2214
      2210      2209      2212      2215      2211      2209      2212      2213
      2211      2209      2212      2214      2211      2209      2212      2215
      2209      2212      2215      2216      2209      2212      2215      2217
      2209      2212      2215      2218      2213      2212      2215      2216
      2213      2212      2215      2217      2213      2212      2215      2218
      2214      2212      2215      2216      2214      2212      2215      2217
      2214      2212      2215      2218      2212      2215      2218      2219
      2212      2215      2218      2220      2212      2215      2218      2221
      2216      2215      2218      2219      2216      2215      2218      2220
      2216      2215      2218      2221      2217      2215      2218      2219
      2217      2215      2218      2220      2217      2215      2218      2221
      2215      2218      2221      2222      2215      2218      2221      2223
      2215      2218      2221      2224      2219      2218      2221      2222
      2219      2218      2221      2223      2219      2218      2221      2224
      2220      2218      2221      2222      2220      2218      2221      2223
      2220      2218      2221      2224      2218      2221      2224      2225
      2218      2221      2224      2226      2222      2221      2224      2225
      2222      2221      2224      2226      2223      2221      2224      2225
      2223      2221      2224      2226      2221      2224      2226      2227
      2221      2224      2226      2228      2225      2224      2226      2227
      2225      2224      2226      2228      2224      2226      2228      2229
      2224      2226      2228      2230      2224      2226      2228      2231
      2227      2226      2228      2229      2227      2226      2228      2230
      2227      2226      2228      2231      2226      2228      2231      2232
      2226      2228      2231      2233      2226      2228      2231      2234
      2229      2228      2231      2232      2229      2228      2231      2233
      2229      2228      2231      2234      2230      2228      2231      2232
      2230      2228      2231      2233      2230      2228      2231      2234
      2228      2231      2234      2235      2228      2231      2234      2236
      2228      2231      2234      2237      2232      2231      2234      2235
      2232      2231      2234      2236      2232      2231      2234      2237
      2233      2231      2234      2235      2233      2231      2234      2236
      2233      2231      2234      2237      2231      2234      2237      2238
      2231      2234      2237      2239      2231      2234      2237      2240
      2235      2234      2237      2238      2235      2234      2237      2239
      2235      2234      2237      2240      2236      2234      2237      2238
      2236      2234      2237      2239      2236      2234      2237      2240
      2234      2237      2240      2241      2234      2237      2240      2242
      2234      2237      2240      2243      2238      2237      2240      2241
      2238      2237      2240      2242      2238      2237      2240      2243
      2239      2237      2240      2241      2239      2237      2240      2242
      2239      2237      2240      2243      2237      2240      2243      2244
      2237      2240      2243      2245      2237      2240      2243      2246
      2241      2240      2243      2244      2241      2240      2243      2245
      2241      2240      2243      2246      2242      2240      2243      2244
      2242      2240      2243      2245      2242      2240      2243      2246
      2240      2243      2246      2247      2240      2243      2246      2248
      2240      2243      2246      2249      2244      2243      2246      2247
      2244      2243      2246      2248      2244      2243      2246      2249
      2245      2243      2246      2247      2245      2243      2246      2248
      2245      2243      2246      2249      2243      2246      2249      2250
      2243      2246      2249      2251      2243      2246      2249      2252
      2247      2246      2249      2250      2247      2246      2249      2251
      2247      2246      2249      2252      2248      2246      2249      2250
      2248      2246      2249      2251      2248      2246      2249      2252
      2254      2253      2257      2258      2254      2253      2257      2259
      2254      2253      2257      2260      2255      2253      2257      2258
      2255      2253      2257      2259      2255      2253      2257      2260
      2256      2253      2257      2258      2256      2253      2257      2259
      2256      2253      2257      2260      2253      2257      2260      2261
      2253      2257      2260      2262      2253      2257      2260      2263
      2258      2257      2260      2261      2258      2257      2260      2262
      2258      2257      2260      2263      2259      2257      2260      2261
      2259      2257      2260      2262      2259      2257      2260      2263
      2257      2260      2263      2264      2257      2260      2263      2265
      2257      2260      2263      2266      2261      2260      2263      2264
      2261      2260      2263      2265      2261      2260      2263      2266
      2262      2260      2263      2264      2262      2260      2263      2265
      2262      2260      2263      2266      2260      2263      2266      2267
      2260      2263      2266      2268      2260      2263      2266      2269
      2264      2263      2266      2267      2264      2263      2266      2268
      2264      2263      2266      2269      2265      2263      2266      2267
      2265      2263      2266      2268      2265      2263      2266      2269
      2263      2266      2269      2270      2263      2266      2269      2271
      2263      2266      2269      2272      2267      2266      2269      2270
      2267      2266      2269      2271      2267      2266      2269      2272
      2268      2266      2269      2270      2268      2266      2269      2271
      2268      2266      2269      2272      2266      2269      2272      2273
      2266      2269      2272      2274      2266      2269      2272      2275
      2270      2269      2272      2273      2270      2269      2272      2274
      2270      2269      2272      2275      2271      2269      2272      2273
      2271      2269      2272      2274      2271      2269      2272      2275
      2269      2272      2275      2276      2269      2272      2275      2277
      2269      2272      2275      2278      2273      2272      2275      2276
      2273      2272      2275      2277      2273      2272      2275      2278
      2274      2272      2275      2276      2274      2272      2275      2277
      2274      2272      2275      2278      2272      2275      2278      2279
      2272      2275      2278      2280      2272      2275      2278      2281
      2276      2275      2278      2279      2276      2275      2278      2280
      2276      2275      2278      2281      2277      2275      2278      2279
      2277      2275      2278      2280      2277      2275      2278      2281
      2275      2278      2281      2282      2275      2278      2281      2283
      2275      2278      2281      2284      2279      2278      2281      2282
      2279      2278      2281      2283      2279      2278      2281      2284
      2280      2278      2281      2282      2280      2278      2281      2283
      2280      2278      2281      2284      2278      2281      2284      2285
      2278      2281      2284      2286      2278      2281      2284      2287
      2282      2281      2284      2285      2282      2281      2284      2286
      2282      2281      2284      2287      2283      2281      2284      2285
      2283      2281      2284      2286      2283      2281      2284      2287
      2281      2284      2287      2288      2281      2284      2287      2289
      2281      2284      2287      2290      2285      2284      2287      2288
      2285      2284      2287      2289      2285      2284      2287      2290
      2286      2284      2287      2288      2286      2284      2287      2289
      2286      2284      2287      2290      2284      2287      2290      2291
      2284      2287      2290      2292      2284      2287      2290      2293
      2288      2287      2290      2291      2288      2287      2290      2292
      2288      2287      2290      2293      2289      2287      2290      2291
      2289      2287      2290      2292      2289      2287      2290      2293
      2287      2290      2293      2294      2287      2290      2293      2295
      2287      2290      2293      2296      2291      2290      2293      2294
      2291      2290      2293      2295      2291      2290      2293      2296
      2292      2290      2293      2294      2292      2290      2293      2295
      2292      2290      2293      2296      2290      2293      2296      2299
      2290      2293      2296      2297      2290      2293      2296      2298
      2294      2293      2296      2299      2294      2293      2296      2297
      2294      2293      2296      2298      2295      2293      2296      2299
      2295      2293      2296      2297      2295      2293      2296      2298
      2300      2299      2296      2293      2301      2299      2296      2293
      2300      2299      2296      2297      2301      2299      2296      2297
      2300      2299      2296      2298      2301      2299      2296      2298
      2296      2299      2301      2302      2300      2299      2301      2302
      2299      2301      2302      2303      2299      2301      2302      2304
      2299      2301      2302      2305      2301      2302      2305      2306
      2301      2302      2305      2307      2301      2302      2305      2334
      2303      2302      2305      2306      2303      2302      2305      2307
      2303      2302      2305      2334      2304      2302      2305      2306
      2304      2302      2305      2307      2304      2302      2305      2334
      2302      2305      2307      2308      2302      2305      2307      2309
      2302      2305      2307      2310      2302      2305      2334      2335
      2306      2305      2307      2308      2306      2305      2307      2309
      2306      2305      2307      2310      2306      2305      2334      2335
      2308      2307      2305      2334      2309      2307      2305      2334
      2310      2307      2305      2334      2307      2305      2334      2335
      2305      2307      2310      2311      2308      2307      2310      2311
      2309      2307      2310      2311      2307      2310      2311      2312
      2307      2310      2311      2332      2307      2310      2311      2333
      2310      2311      2312      2313      2313      2312      2311      2332
      2313      2312      2311      2333      2311      2312      2313      2314
      2311      2312      2313      2315      2311      2312      2313      2316
      2312      2313      2316      2317      2312      2313      2316      2318
      2312      2313      2316      2319      2314      2313      2316      2317
      2314      2313      2316      2318      2314      2313      2316      2319
      2315      2313      2316      2317      2315      2313      2316      2318
      2315      2313      2316      2319      2313      2316      2319      2320
      2313      2316      2319      2324      2313      2316      2319      2328
      2317      2316      2319      2320      2317      2316      2319      2324
      2317      2316      2319      2328      2318      2316      2319      2320
      2318      2316      2319      2324      2318      2316      2319      2328
      2316      2319      2320      2321      2316      2319      2320      2322
      2316      2319      2320      2323      2316      2319      2324      2325
      2316      2319      2324      2326      2316      2319      2324      2327
      2316      2319      2328      2329      2316      2319      2328      2330
      2316      2319      2328      2331      2321      2320      2319      2324
      2322      2320      2319      2324      2323      2320      2319      2324
      2320      2319      2324      2325      2320      2319      2324      2326
      2320      2319      2324      2327      2321      2320      2319      2328
      2322      2320      2319      2328      2323      2320      2319      2328
      2320      2319      2328      2329      2320      2319      2328      2330
      2320      2319      2328      2331      2325      2324      2319      2328
      2326      2324      2319      2328      2327      2324      2319      2328
      2324      2319      2328      2329      2324      2319      2328      2330
      2324      2319      2328      2331      2305      2334      2335      2337
      2305      2334      2335      2336      2338      2337      2335      2334
      2339      2337      2335      2334      2340      2337      2335      2334
      2338      2337      2335      2336      2339      2337      2335      2336
      2340      2337      2335      2336      2335      2337      2340      2341
      2335      2337      2340      2342      2335      2337      2340      2343
      2338      2337      2340      2341      2338      2337      2340      2342
      2338      2337      2340      2343      2339      2337      2340      2341
      2339      2337      2340      2342      2339      2337      2340      2343
      2337      2340      2343      2344      2337      2340      2343      2345
      2337      2340      2343      2346      2341      2340      2343      2344
      2341      2340      2343      2345      2341      2340      2343      2346
      2342      2340      2343      2344      2342      2340      2343      2345
      2342      2340      2343      2346      2340      2343      2346      2347
      2340      2343      2346      2348      2340      2343      2346      2349
      2344      2343      2346      2347      2344      2343      2346      2348
      2344      2343      2346      2349      2345      2343      2346      2347
      2345      2343      2346      2348      2345      2343      2346      2349
      2343      2346      2349      2350      2343      2346      2349      2351
      2343      2346      2349      2352      2347      2346      2349      2350
      2347      2346      2349      2351      2347      2346      2349      2352
      2348      2346      2349      2350      2348      2346      2349      2351
      2348      2346      2349      2352      2346      2349      2352      2353
      2346      2349      2352      2354      2346      2349      2352      2355
      2350      2349      2352      2353      2350      2349      2352      2354
      2350      2349      2352      2355      2351      2349      2352      2353
      2351      2349      2352      2354      2351      2349      2352      2355
      2349      2352      2355      2356      2349      2352      2355      2357
      2349      2352      2355      2358      2353      2352      2355      2356
      2353      2352      2355      2357      2353      2352      2355      2358
      2354      2352      2355      2356      2354      2352      2355      2357
      2354      2352      2355      2358      2352      2355      2358      2359
      2352      2355      2358      2360      2356      2355      2358      2359
      2356      2355      2358      2360      2357      2355      2358      2359
      2357      2355      2358      2360      2355      2358      2360      2361
      2355      2358      2360      2362      2359      2358      2360      2361
      2359      2358      2360      2362      2358      2360      2362      2363
      2358      2360      2362      2364      2358      2360      2362      2365
      2361      2360      2362      2363      2361      2360      2362      2364
      2361      2360      2362      2365      2360      2362      2365      2366
      2360      2362      2365      2367      2360      2362      2365      2368
      2363      2362      2365      2366      2363      2362      2365      2367
      2363      2362      2365      2368      2364      2362      2365      2366
      2364      2362      2365      2367      2364      2362      2365      2368
      2362      2365      2368      2369      2362      2365      2368      2370
      2362      2365      2368      2371      2366      2365      2368      2369
      2366      2365      2368      2370      2366      2365      2368      2371
      2367      2365      2368      2369      2367      2365      2368      2370
      2367      2365      2368      2371      2365      2368      2371      2372
      2365      2368      2371      2373      2365      2368      2371      2374
      2369      2368      2371      2372      2369      2368      2371      2373
      2369      2368      2371      2374      2370      2368      2371      2372
      2370      2368      2371      2373      2370      2368      2371      2374
      2368      2371      2374      2375      2368      2371      2374      2376
      2368      2371      2374      2377      2372      2371      2374      2375
      2372      2371      2374      2376      2372      2371      2374      2377
      2373      2371      2374      2375      2373      2371      2374      2376
      2373      2371      2374      2377      2371      2374      2377      2378
      2371      2374      2377      2379      2371      2374      2377      2380
      2375      2374      2377      2378      2375      2374      2377      2379
      2375      2374      2377      2380      2376      2374      2377      2378
      2376      2374      2377      2379      2376      2374      2377      2380
      2374      2377      2380      2381      2374      2377      2380      2382
      2374      2377      2380      2383      2378      2377      2380      2381
      2378      2377      2380      2382      2378      2377      2380      2383
      2379      2377      2380      2381      2379      2377      2380      2382
      2379      2377      2380      2383      2377      2380      2383      2384
      2377      2380      2383      2385      2377      2380      2383      2386
      2381      2380      2383      2384      2381      2380      2383      2385
      2381      2380      2383      2386      2382      2380      2383      2384
      2382      2380      2383      2385      2382      2380      2383      2386
      2388      2387      2391      2392      2388      2387      2391      2393
      2388      2387      2391      2394      2389      2387      2391      2392
      2389      2387      2391      2393      2389      2387      2391      2394
      2390      2387      2391      2392      2390      2387      2391      2393
      2390      2387      2391      2394      2387      2391      2394      2395
      2387      2391      2394      2396      2387      2391      2394      2397
      2392      2391      2394      2395      2392      2391      2394      2396
      2392      2391      2394      2397      2393      2391      2394      2395
      2393      2391      2394      2396      2393      2391      2394      2397
      2391      2394      2397      2398      2391      2394      2397      2399
      2391      2394      2397      2400      2395      2394      2397      2398
      2395      2394      2397      2399      2395      2394      2397      2400
      2396      2394      2397      2398      2396      2394      2397      2399
      2396      2394      2397      2400      2394      2397      2400      2401
      2394      2397      2400      2402      2394      2397      2400      2403
      2398      2397      2400      2401      2398      2397      2400      2402
      2398      2397      2400      2403      2399      2397      2400      2401
      2399      2397      2400      2402      2399      2397      2400      2403
      2397      2400      2403      2404      2397      2400      2403      2405
      2397      2400      2403      2406      2401      2400      2403      2404
      2401      2400      2403      2405      2401      2400      2403      2406
      2402      2400      2403      2404      2402      2400      2403      2405
      2402      2400      2403      2406      2400      2403      2406      2407
      2400      2403      2406      2408      2400      2403      2406      2409
      2404      2403      2406      2407      2404      2403      2406      2408
      2404      2403      2406      2409      2405      2403      2406      2407
      2405      2403      2406      2408      2405      2403      2406      2409
      2403      2406      2409      2410      2403      2406      2409      2411
      2403      2406      2409      2412      2407      2406      2409      2410
      2407      2406      2409      2411      2407      2406      2409      2412
      2408      2406      2409      2410      2408      2406      2409      2411
      2408      2406      2409      2412      2406      2409      2412      2413
      2406      2409      2412      2414      2406      2409      2412      2415
      2410      2409      2412      2413      2410      2409      2412      2414
      2410      2409      2412      2415      2411      2409      2412      2413
      2411      2409      2412      2414      2411      2409      2412      2415
      2409      2412      2415      2416      2409      2412      2415      2417
      2409      2412      2415      2418      2413      2412      2415      2416
      2413      2412      2415      2417      2413      2412      2415      2418
      2414      2412      2415      2416      2414      2412      2415      2417
      2414      2412      2415      2418      2412      2415      2418      2419
      2412      2415      2418      2420      2412      2415      2418      2421
      2416      2415      2418      2419      2416      2415      2418      2420
      2416      2415      2418      2421      2417      2415      2418      2419
      2417      2415      2418      2420      2417      2415      2418      2421
      2415      2418      2421      2422      2415      2418      2421      2423
      2415      2418      2421      2424      2419      2418      2421      2422
      2419      2418      2421      2423      2419      2418      2421      2424
      2420      2418      2421      2422      2420      2418      2421      2423
      2420      2418      2421      2424      2418      2421      2424      2425
      2418      2421      2424      2426      2418      2421      2424      2427
      2422      2421      2424      2425      2422      2421      2424      2426
      2422      2421      2424      2427      2423      2421      2424      2425
      2423      2421      2424      2426      2423      2421      2424      2427
      2421      2424      2427      2428      2421      2424      2427      2429
      2421      2424      2427      2430      2425      2424      2427      2428
      2425      2424      2427      2429      2425      2424      2427      2430
      2426      2424      2427      2428      2426      2424      2427      2429
      2426      2424      2427      2430      2424      2427      2430      2433
      2424      2427      2430      2431      2424      2427      2430      2432
      2428      2427      2430      2433      2428      2427      2430      2431
      2428      2427      2430      2432      2429      2427      2430      2433
      2429      2427      2430      2431      2429      2427      2430      2432
      2434      2433      2430      2427      2435      2433      2430      2427
      2434      2433      2430      2431      2435      2433      2430      2431
      2434      2433      2430      2432      2435      2433      2430      2432
      2430      2433      2435      2436      2434      2433      2435      2436
      2433      2435      2436      2437      2433      2435      2436      2438
      2433      2435      2436      2439      2435      2436      2439      2440
      2435      2436      2439      2441      2435      2436      2439      2468
      2437      2436      2439      2440      2437      2436      2439      2441
      2437      2436      2439      2468      2438      2436      2439      2440
      2438      2436      2439      2441      2438      2436      2439      2468
      2436      2439      2441      2442      2436      2439      2441      2443
      2436      2439      2441      2444      2436      2439      2468      2469
      2440      2439      2441      2442      2440      2439      2441      2443
      2440      2439      2441      2444      2440      2439      2468      2469
      2442      2441      2439      2468      2443      2441      2439      2468
      2444      2441      2439      2468      2441      2439      2468      2469
      2439      2441      2444      2445      2442      2441      2444      2445
      2443      2441      2444      2445      2441      2444      2445      2446
      2441      2444      2445      2466      2441      2444      2445      2467
      2444      2445      2446      2447      2447      2446      2445      2466
      2447      2446      2445      2467      2445      2446      2447      2448
      2445      2446      2447      2449      2445      2446      2447      2450
      2446      2447      2450      2451      2446      2447      2450      2452
      2446      2447      2450      2453      2448      2447      2450      2451
      2448      2447      2450      2452      2448      2447      2450      2453
      2449      2447      2450      2451      2449      2447      2450      2452
      2449      2447      2450      2453      2447      2450      2453      2454
      2447      2450      2453      2458      2447      2450      2453      2462
      2451      2450      2453      2454      2451      2450      2453      2458
      2451      2450      2453      2462      2452      2450      2453      2454
      2452      2450      2453      2458      2452      2450      2453      2462
      2450      2453      2454      2455      2450      2453      2454      2456
      2450      2453      2454      2457      2450      2453      2458      2459
      2450      2453      2458      2460      2450      2453      2458      2461
      2450      2453      2462      2463      2450      2453      2462      2464
      2450      2453      2462      2465      2455      2454      2453      2458
      2456      2454      2453      2458      2457      2454      2453      2458
      2454      2453      2458      2459      2454      2453      2458      2460
      2454      2453      2458      2461      2455      2454      2453      2462
      2456      2454      2453      2462      2457      2454      2453      2462
      2454      2453      2462      2463      2454      2453      2462      2464
      2454      2453      2462      2465      2459      2458      2453      2462
      2460      2458      2453      2462      2461      2458      2453      2462
      2458      2453      2462      2463      2458      2453      2462      2464
      2458      2453      2462      2465      2439      2468      2469      2471
      2439      2468      2469      2470      2472      2471      2469      2468
      2473      2471      2469      2468      2474      2471      2469      2468
      2472      2471      2469      2470      2473      2471      2469      2470
      2474      2471      2469      2470      2469      2471      2474      2475
      2469      2471      2474      2476      2469      2471      2474      2477
      2472      2471      2474      2475      2472      2471      2474      2476
      2472      2471      2474      2477      2473      2471      2474      2475
      2473      2471      2474      2476      2473      2471      2474      2477
      2471      2474      2477      2478      2471      2474      2477      2479
      2471      2474      2477      2480      2475      2474      2477      2478
      2475      2474      2477      2479      2475      2474      2477      2480
      2476      2474      2477      2478      2476      2474      2477      2479
      2476      2474      2477      2480      2474      2477      2480      2481
      2474      2477      2480      2482      2474      2477      2480      2483
      2478      2477      2480      2481      2478      2477      2480      2482
      2478      2477      2480      2483      2479      2477      2480      2481
      2479      2477      2480      2482      2479      2477      2480      2483
      2477      2480      2483      2484      2477      2480      2483      2485
      2477      2480      2483      2486      2481      2480      2483      2484
      2481      2480      2483      2485      2481      2480      2483      2486
      2482      2480      2483      2484      2482      2480      2483      2485
      2482      2480      2483      2486      2480      2483      2486      2487
      2480      2483      2486      2488      2480      2483      2486      2489
      2484      2483      2486      2487      2484      2483      2486      2488
      2484      2483      2486      2489      2485      2483      2486      2487
      2485      2483      2486      2488      2485      2483      2486      2489
      2483      2486      2489      2490      2483      2486      2489      2491
      2483      2486      2489      2492      2487      2486      2489      2490
      2487      2486      2489      2491      2487      2486      2489      2492
      2488      2486      2489      2490      2488      2486      2489      2491
      2488      2486      2489      2492      2486      2489      2492      2493
      2486      2489      2492      2494      2490      2489      2492      2493
      2490      2489      2492      2494      2491      2489      2492      2493
      2491      2489      2492      2494      2489      2492      2494      2495
      2489      2492      2494      2496      2493      2492      2494      2495
      2493      2492      2494      2496      2492      2494      2496      2497
      2492      2494      2496      2498      2492      2494      2496      2499
      2495      2494      2496      2497      2495      2494      2496      2498
      2495      2494      2496      2499      2494      2496      2499      2500
      2494      2496      2499      2501      2494      2496      2499      2502
      2497      2496      2499      2500      2497      2496      2499      2501
      2497      2496      2499      2502      2498      2496      2499      2500
      2498      2496      2499      2501      2498      2496      2499      2502
      2496      2499      2502      2503      2496      2499      2502      2504
      2496      2499      2502      2505      2500      2499      2502      2503
      2500      2499      2502      2504      2500      2499      2502      2505
      2501      2499      2502      2503      2501      2499      2502      2504
      2501      2499      2502      2505      2499      2502      2505      2506
      2499      2502      2505      2507      2499      2502      2505      2508
      2503      2502      2505      2506      2503      2502      2505      2507
      2503      2502      2505      2508      2504      2502      2505      2506
      2504      2502      2505      2507      2504      2502      2505      2508
      2502      2505      2508      2509      2502      2505      2508      2510
      2502      2505      2508      2511      2506      2505      2508      2509
      2506      2505      2508      2510      2506      2505      2508      2511
      2507      2505      2508      2509      2507      2505      2508      2510
      2507      2505      2508      2511      2505      2508      2511      2512
      2505      2508      2511      2513      2505      2508      2511      2514
      2509      2508      2511      2512      2509      2508      2511      2513
      2509      2508      2511      2514      2510      2508      2511      2512
      2510      2508      2511      2513      2510      2508      2511      2514
      2508      2511      2514      2515      2508      2511      2514      2516
      2508      2511      2514      2517      2512      2511      2514      2515
      2512      2511      2514      2516      2512      2511      2514      2517
      2513      2511      2514      2515      2513      2511      2514      2516
      2513      2511      2514      2517      2511      2514      2517      2518
      2511      2514      2517      2519      2511      2514      2517      2520
      2515      2514      2517      2518      2515      2514      2517      2519
      2515      2514      2517      2520      2516      2514      2517      2518
      2516      2514      2517      2519      2516      2514      2517      2520
      2522      2521      2525      2526      2522      2521      2525      2527
      2522      2521      2525      2528      2523      2521      2525      2526
      2523      2521      2525      2527      2523      2521      2525      2528
      2524      2521      2525      2526      2524      2521      2525      2527
      2524      2521      2525      2528      2521      2525      2528      2529
      2521      2525      2528      2530      2521      2525      2528      2531
      2526      2525      2528      2529      2526      2525      2528      2530
      2526      2525      2528      2531      2527      2525      2528      2529
      2527      2525      2528      2530      2527      2525      2528      2531
      2525      2528      2531      2532      2525      2528      2531      2533
      2525      2528      2531      2534      2529      2528      2531      2532
      2529      2528      2531      2533      2529      2528      2531      2534
      2530      2528      2531      2532      2530      2528      2531      2533
      2530      2528      2531      2534      2528      2531      2534      2535
      2528      2531      2534      2536      2528      2531      2534      2537
      2532      2531      2534      2535      2532      2531      2534      2536
      2532      2531      2534      2537      2533      2531      2534      2535
      2533      2531      2534      2536      2533      2531      2534      2537
      2531      2534      2537      2538      2531      2534      2537      2539
      2531      2534      2537      2540      2535      2534      2537      2538
      2535      2534      2537      2539      2535      2534      2537      2540
      2536      2534      2537      2538      2536      2534      2537      2539
      2536      2534      2537      2540      2534      2537      2540      2541
      2534      2537      2540      2542      2534      2537      2540      2543
      2538      2537      2540      2541      2538      2537      2540      2542
      2538      2537      2540      2543      2539      2537      2540      2541
      2539      2537      2540      2542      2539      2537      2540      2543
      2537      2540      2543      2544      2537      2540      2543      2545
      2537      2540      2543      2546      2541      2540      2543      2544
      2541      2540      2543      2545      2541      2540      2543      2546
      2542      2540      2543      2544      2542      2540      2543      2545
      2542      2540      2543      2546      2540      2543      2546      2547
      2540      2543      2546      2548      2540      2543      2546      2549
      2544      2543      2546      2547      2544      2543      2546      2548
      2544      2543      2546      2549      2545      2543      2546      2547
      2545      2543      2546      2548      2545      2543      2546      2549
      2543      2546      2549      2550      2543      2546      2549      2551
      2543      2546      2549      2552      2547      2546      2549      2550
      2547      2546      2549      2551      2547      2546      2549      2552
      2548      2546      2549      2550      2548      2546      2549      2551
      2548      2546      2549      2552      2546      2549      2552      2553
      2546      2549      2552      2554      2546      2549      2552      2555
      2550      2549      2552      2553      2550      2549      2552      2554
      2550      2549      2552      2555      2551      2549      2552      2553
      2551      2549      2552      2554      2551      2549      2552      2555
      2549      2552      2555      2556      2549      2552      2555      2557
      2549      2552      2555      2558      2553      2552      2555      2556
      2553      2552      2555      2557      2553      2552      2555      2558
      2554      2552      2555      2556      2554      2552      2555      2557
      2554      2552      2555      2558      2552      2555      2558      2559
      2552      2555      2558      2560      2552      2555      2558      2561
      2556      2555      2558      2559      2556      2555      2558      2560
      2556      2555      2558      2561      2557      2555      2558      2559
      2557      2555      2558      2560      2557      2555      2558      2561
      2555      2558      2561      2562      2555      2558      2561      2563
      2555      2558      2561      2564      2559      2558      2561      2562
      2559      2558      2561      2563      2559      2558      2561      2564
      2560      2558      2561      2562      2560      2558      2561      2563
      2560      2558      2561      2564      2558      2561      2564      2567
      2558      2561      2564      2565      2558      2561      2564      2566
      2562      2561      2564      2567      2562      2561      2564      2565
      2562      2561      2564      2566      2563      2561      2564      2567
      2563      2561      2564      2565      2563      2561      2564      2566
      2568      2567      2564      2561      2569      2567      2564      2561
      2568      2567      2564      2565      2569      2567      2564      2565
      2568      2567      2564      2566      2569      2567      2564      2566
      2564      2567      2569      2570      2568      2567      2569      2570
      2567      2569      2570      2571      2567      2569      2570      2572
      2567      2569      2570      2573      2569      2570      2573      2574
      2569      2570      2573      2575      2569      2570      2573      2602
      2571      2570      2573      2574      2571      2570      2573      2575
      2571      2570      2573      2602      2572      2570      2573      2574
      2572      2570      2573      2575      2572      2570      2573      2602
      2570      2573      2575      2576      2570      2573      2575      2577
      2570      2573      2575      2578      2570      2573      2602      2603
      2574      2573      2575      2576      2574      2573      2575      2577
      2574      2573      2575      2578      2574      2573      2602      2603
      2576      2575      2573      2602      2577      2575      2573      2602
      2578      2575      2573      2602      2575      2573      2602      2603
      2573      2575      2578      2579      2576      2575      2578      2579
      2577      2575      2578      2579      2575      2578      2579      2580
      2575      2578      2579      2600      2575      2578      2579      2601
      2578      2579      2580      2581      2581      2580      2579      2600
      2581      2580      2579      2601      2579      2580      2581      2582
      2579      2580      2581      2583      2579      2580      2581      2584
      2580      2581      2584      2585      2580      2581      2584      2586
      2580      2581      2584      2587      2582      2581      2584      2585
      2582      2581      2584      2586      2582      2581      2584      2587
      2583      2581      2584      2585      2583      2581      2584      2586
      2583      2581      2584      2587      2581      2584      2587      2588
      2581      2584      2587      2592      2581      2584      2587      2596
      2585      2584      2587      2588      2585      2584      2587      2592
      2585      2584      2587      2596      2586      2584      2587      2588
      2586      2584      2587      2592      2586      2584      2587      2596
      2584      2587      2588      2589      2584      2587      2588      2590
      2584      2587      2588      2591      2584      2587      2592      2593
      2584      2587      2592      2594      2584      2587      2592      2595
      2584      2587      2596      2597      2584      2587      2596      2598
      2584      2587      2596      2599      2589      2588      2587      2592
      2590      2588      2587      2592      2591      2588      2587      2592
      2588      2587      2592      2593      2588      2587      2592      2594
      2588      2587      2592      2595      2589      2588      2587      2596
      2590      2588      2587      2596      2591      2588      2587      2596
      2588      2587      2596      2597      2588      2587      2596      2598
      2588      2587      2596      2599      2593      2592      2587      2596
      2594      2592      2587      2596      2595      2592      2587      2596
      2592      2587      2596      2597      2592      2587      2596      2598
      2592      2587      2596      2599      2573      2602      2603      2605
      2573      2602      2603      2604      2606      2605      2603      2602
      2607      2605      2603      2602      2608      2605      2603      2602
      2606      2605      2603      2604      2607      2605      2603      2604
      2608      2605      2603      2604      2603      2605      2608      2609
      2603      2605      2608      2610      2603      2605      2608      2611
      2606      2605      2608      2609      2606      2605      2608      2610
      2606      2605      2608      2611      2607      2605      2608      2609
      2607      2605      2608      2610      2607      2605      2608      2611
      2605      2608      2611      2612      2605      2608      2611      2613
      2605      2608      2611      2614      2609      2608      2611      2612
      2609      2608      2611      2613      2609      2608      2611      2614
      2610      2608      2611      2612      2610      2608      2611      2613
      2610      2608      2611      2614      2608      2611      2614      2615
      2608      2611      2614      2616      2608      2611      2614      2617
      2612      2611      2614      2615      2612      2611      2614      2616
      2612      2611      2614      2617      2613      2611      2614      2615
      2613      2611      2614      2616      2613      2611      2614      2617
      2611      2614      2617      2618      2611      2614      2617      2619
      2611      2614      2617      2620      2615      2614      2617      2618
      2615      2614      2617      2619      2615      2614      2617      2620
      2616      2614      2617      2618      2616      2614      2617      2619
      2616      2614      2617      2620      2614      2617      2620      2621
      2614      2617      2620      2622      2614      2617      2620      2623
      2618      2617      2620      2621      2618      2617      2620      2622
      2618      2617      2620      2623      2619      2617      2620      2621
      2619      2617      2620      2622      2619      2617      2620      2623
      2617      2620      2623      2624      2617      2620      2623      2625
      2617      2620      2623      2626      2621      2620      2623      2624
      2621      2620      2623      2625      2621      2620      2623      2626
      2622      2620      2623      2624      2622      2620      2623      2625
      2622      2620      2623      2626      2620      2623      2626      2627
      2620      2623      2626      2628      2624      2623      2626      2627
      2624      2623      2626      2628      2625      2623      2626      2627
      2625      2623      2626      2628      2623      2626      2628      2629
      2623      2626      2628      2630      2627      2626      2628      2629
      2627      2626      2628      2630      2626      2628      2630      2631
      2626      2628      2630      2632      2626      2628      2630      2633
      2629      2628      2630      2631      2629      2628      2630      2632
      2629      2628      2630      2633      2628      2630      2633      2634
      2628      2630      2633      2635      2628      2630      2633      2636
      2631      2630      2633      2634      2631      2630      2633      2635
      2631      2630      2633      2636      2632      2630      2633      2634
      2632      2630      2633      2635      2632      2630      2633      2636
      2630      2633      2636      2637      2630      2633      2636      2638
      2630      2633      2636      2639      2634      2633      2636      2637
      2634      2633      2636      2638      2634      2633      2636      2639
      2635      2633      2636      2637      2635      2633      2636      2638
      2635      2633      2636      2639      2633      2636      2639      2640
      2633      2636      2639      2641      2633      2636      2639      2642
      2637      2636      2639      2640      2637      2636      2639      2641
      2637      2636      2639      2642      2638      2636      2639      2640
      2638      2636      2639      2641      2638      2636      2639      2642
      2636      2639      2642      2643      2636      2639      2642      2644
      2636      2639      2642      2645      2640      2639      2642      2643
      2640      2639      2642      2644      2640      2639      2642      2645
      2641      2639      2642      2643      2641      2639      2642      2644
      2641      2639      2642      2645      2639      2642      2645      2646
      2639      2642      2645      2647      2639      2642      2645      2648
      2643      2642      2645      2646      2643      2642      2645      2647
      2643      2642      2645      2648      2644      2642      2645      2646
      2644      2642      2645      2647      2644      2642      2645      2648
      2642      2645      2648      2649      2642      2645      2648      2650
      2642      2645      2648      2651      2646      2645      2648      2649
      2646      2645      2648      2650      2646      2645      2648      2651
      2647      2645      2648      2649      2647      2645      2648      2650
      2647      2645      2648      2651      2645      2648      2651      2652
      2645      2648      2651      2653      2645      2648      2651      2654
      2649      2648      2651      2652      2649      2648      2651      2653
      2649      2648      2651      2654      2650      2648      2651      2652
      2650      2648      2651      2653      2650      2648      2651      2654
      2656      2655      2659      2660      2656      2655      2659      2661
      2656      2655      2659      2662      2657      2655      2659      2660
      2657      2655      2659      2661      2657      2655      2659      2662
      2658      2655      2659      2660      2658      2655      2659      2661
      2658      2655      2659      2662      2655      2659      2662      2663
      2655      2659      2662      2664      2655      2659      2662      2665
      2660      2659      2662      2663      2660      2659      2662      2664
      2660      2659      2662      2665      2661      2659      2662      2663
      2661      2659      2662      2664      2661      2659      2662      2665
      2659      2662      2665      2666      2659      2662      2665      2667
      2659      2662      2665      2668      2663      2662      2665      2666
      2663      2662      2665      2667      2663      2662      2665      2668
      2664      2662      2665      2666      2664      2662      2665      2667
      2664      2662      2665      2668      2662      2665      2668      2669
      2662      2665      2668      2670      2662      2665      2668      2671
      2666      2665      2668      2669      2666      2665      2668      2670
      2666      2665      2668      2671      2667      2665      2668      2669
      2667      2665      2668      2670      2667      2665      2668      2671
      2665      2668      2671      2672      2665      2668      2671      2673
      2665      2668      2671      2674      2669      2668      2671      2672
      2669      2668      2671      2673      2669      2668      2671      2674
      2670      2668      2671      2672      2670      2668      2671      2673
      2670      2668      2671      2674      2668      2671      2674      2675
      2668      2671      2674      2676      2668      2671      2674      2677
      2672      2671      2674      2675      2672      2671      2674      2676
      2672      2671      2674      2677      2673      2671      2674      2675
      2673      2671      2674      2676      2673      2671      2674      2677
      2671      2674      2677      2678      2671      2674      2677      2679
      2671      2674      2677      2680      2675      2674      2677      2678
      2675      2674      2677      2679      2675      2674      2677      2680
      2676      2674      2677      2678      2676      2674      2677      2679
      2676      2674      2677      2680      2674      2677      2680      2681
      2674      2677      2680      2682      2674      2677      2680      2683
      2678      2677      2680      2681      2678      2677      2680      2682
      2678      2677      2680      2683      2679      2677      2680      2681
      2679      2677      2680      2682      2679      2677      2680      2683
      2677      2680      2683      2684      2677      2680      2683      2685
      2677      2680      2683      2686      2681      2680      2683      2684
      2681      2680      2683      2685      2681      2680      2683      2686
      2682      2680      2683      2684      2682      2680      2683      2685
      2682      2680      2683      2686      2680      2683      2686      2687
      2680      2683      2686      2688      2680      2683      2686      2689
      2684      2683      2686      2687      2684      2683      2686      2688
      2684      2683      2686      2689      2685      2683      2686      2687
      2685      2683      2686      2688      2685      2683      2686      2689
      2683      2686      2689      2690      2683      2686      2689      2691
      2683      2686      2689      2692      2687      2686      2689      2690
      2687      2686      2689      2691      2687      2686      2689      2692
      2688      2686      2689      2690      2688      2686      2689      2691
      2688      2686      2689      2692      2686      2689      2692      2693
      2686      2689      2692      2694      2686      2689      2692      2695
      2690      2689      2692      2693      2690      2689      2692      2694
      2690      2689      2692      2695      2691      2689      2692      2693
      2691      2689      2692      2694      2691      2689      2692      2695
      2689      2692      2695      2696      2689      2692      2695      2697
      2689      2692      2695      2698      2693      2692      2695      2696
      2693      2692      2695      2697      2693      2692      2695      2698
      2694      2692      2695      2696      2694      2692      2695      2697
      2694      2692      2695      2698      2692      2695      2698      2701
      2692      2695      2698      2699      2692      2695      2698      2700
      2696      2695      2698      2701      2696      2695      2698      2699
      2696      2695      2698      2700      2697      2695      2698      2701
      2697      2695      2698      2699      2697      2695      2698      2700
      2702      2701      2698      2695      2703      2701      2698      2695
      2702      2701      2698      2699      2703      2701      2698      2699
      2702      2701      2698      2700      2703      2701      2698      2700
      2698      2701      2703      2704      2702      2701      2703      2704
      2701      2703      2704      2705      2701      2703      2704      2706
      2701      2703      2704      2707      2703      2704      2707      2708
      2703      2704      2707      2709      2703      2704      2707      2736
      2705      2704      2707      2708      2705      2704      2707      2709
      2705      2704      2707      2736      2706      2704      2707      2708
      2706      2704      2707      2709      2706      2704      2707      2736
      2704      2707      2709      2710      2704      2707      2709      2711
      2704      2707      2709      2712      2704      2707      2736      2737
      2708      2707      2709      2710      2708      2707      2709      2711
      2708      2707      2709      2712      2708      2707      2736      2737
      2710      2709      2707      2736      2711      2709      2707      2736
      2712      2709      2707      2736      2709      2707      2736      2737
      2707      2709      2712      2713      2710      2709      2712      2713
      2711      2709      2712      2713      2709      2712      2713      2714
      2709      2712      2713      2734      2709      2712      2713      2735
      2712      2713      2714      2715      2715      2714      2713      2734
      2715      2714      2713      2735      2713      2714      2715      2716
      2713      2714      2715      2717      2713      2714      2715      2718
      2714      2715      2718      2719      2714      2715      2718      2720
      2714      2715      2718      2721      2716      2715      2718      2719
      2716      2715      2718      2720      2716      2715      2718      2721
      2717      2715      2718      2719      2717      2715      2718      2720
      2717      2715      2718      2721      2715      2718      2721      2722
      2715      2718      2721      2726      2715      2718      2721      2730
      2719      2718      2721      2722      2719      2718      2721      2726
      2719      2718      2721      2730      2720      2718      2721      2722
      2720      2718      2721      2726      2720      2718      2721      2730
      2718      2721      2722      2723      2718      2721      2722      2724
      2718      2721      2722      2725      2718      2721      2726      2727
      2718      2721      2726      2728      2718      2721      2726      2729
      2718      2721      2730      2731      2718      2721      2730      2732
      2718      2721      2730      2733      2723      2722      2721      2726
      2724      2722      2721      2726      2725      2722      2721      2726
      2722      2721      2726      2727      2722      2721      2726      2728
      2722      2721      2726      2729      2723      2722      2721      2730
      2724      2722      2721      2730      2725      2722      2721      2730
      2722      2721      2730      2731      2722      2721      2730      2732
      2722      2721      2730      2733      2727      2726      2721      2730
      2728      2726      2721      2730      2729      2726      2721      2730
      2726      2721      2730      2731      2726      2721      2730      2732
      2726      2721      2730      2733      2707      2736      2737      2739
      2707      2736      2737      2738      2740      2739      2737      2736
      2741      2739      2737      2736      2742      2739      2737      2736
      2740      2739      2737      2738      2741      2739      2737      2738
      2742      2739      2737      2738      2737      2739      2742      2743
      2737      2739      2742      2744      2737      2739      2742      2745
      2740      2739      2742      2743      2740      2739      2742      2744
      2740      2739      2742      2745      2741      2739      2742      2743
      2741      2739      2742      2744      2741      2739      2742      2745
      2739      2742      2745      2746      2739      2742      2745      2747
      2739      2742      2745      2748      2743      2742      2745      2746
      2743      2742      2745      2747      2743      2742      2745      2748
      2744      2742      2745      2746      2744      2742      2745      2747
      2744      2742      2745      2748      2742      2745      2748      2749
      2742      2745      2748      2750      2742      2745      2748      2751
      2746      2745      2748      2749      2746      2745      2748      2750
      2746      2745      2748      2751      2747      2745      2748      2749
      2747      2745      2748      2750      2747      2745      2748      2751
      2745      2748      2751      2752      2745      2748      2751      2753
      2745      2748      2751      2754      2749      2748      2751      2752
      2749      2748      2751      2753      2749      2748      2751      2754
      2750      2748      2751      2752      2750      2748      2751      2753
      2750      2748      2751      2754      2748      2751      2754      2755
      2748      2751      2754      2756      2748      2751      2754      2757
      2752      2751      2754      2755      2752      2751      2754      2756
      2752      2751      2754      2757      2753      2751      2754      2755
      2753      2751      2754      2756      2753      2751      2754      2757
      2751      2754      2757      2758      2751      2754      2757      2759
      2751      2754      2757      2760      2755      2754      2757      2758
      2755      2754      2757      2759      2755      2754      2757      2760
      2756      2754      2757      2758      2756      2754      2757      2759
      2756      2754      2757      2760      2754      2757      2760      2761
      2754      2757      2760      2762      2758      2757      2760      2761
      2758      2757      2760      2762      2759      2757      2760      2761
      2759      2757      2760      2762      2757      2760      2762      2763
      2757      2760      2762      2764      2761      2760      2762      2763
      2761      2760      2762      2764      2760      2762      2764      2765
      2760      2762      2764      2766      2760      2762      2764      2767
      2763      2762      2764      2765      2763      2762      2764      2766
      2763      2762      2764      2767      2762      2764      2767      2768
      2762      2764      2767      2769      2762      2764      2767      2770
      2765      2764      2767      2768      2765      2764      2767      2769
      2765      2764      2767      2770      2766      2764      2767      2768
      2766      2764      2767      2769      2766      2764      2767      2770
      2764      2767      2770      2771      2764      2767      2770      2772
      2764      2767      2770      2773      2768      2767      2770      2771
      2768      2767      2770      2772      2768      2767      2770      2773
      2769      2767      2770      2771      2769      2767      2770      2772
      2769      2767      2770      2773      2767      2770      2773      2774
      2767      2770      2773      2775      2767      2770      2773      2776
      2771      2770      2773      2774      2771      2770      2773      2775
      2771      2770      2773      2776      2772      2770      2773      2774
      2772      2770      2773      2775      2772      2770      2773      2776
      2770      2773      2776      2777      2770      2773      2776      2778
      2770      2773      2776      2779      2774      2773      2776      2777
      2774      2773      2776      2778      2774      2773      2776      2779
      2775      2773      2776      2777      2775      2773      2776      2778
      2775      2773      2776      2779      2773      2776      2779      2780
      2773      2776      2779      2781      2773      2776      2779      2782
      2777      2776      2779      2780      2777      2776      2779      2781
      2777      2776      2779      2782      2778      2776      2779      2780
      2778      2776      2779      2781      2778      2776      2779      2782
      2776      2779      2782      2783      2776      2779      2782      2784
      2776      2779      2782      2785      2780      2779      2782      2783
      2780      2779      2782      2784      2780      2779      2782      2785
      2781      2779      2782      2783      2781      2779      2782      2784
      2781      2779      2782      2785      2779      2782      2785      2786
      2779      2782      2785      2787      2779      2782      2785      2788
      2783      2782      2785      2786      2783      2782      2785      2787
      2783      2782      2785      2788      2784      2782      2785      2786
      2784      2782      2785      2787      2784      2782      2785      2788
      2790      2789      2793      2794      2790      2789      2793      2795
      2790      2789      2793      2796      2791      2789      2793      2794
      2791      2789      2793      2795      2791      2789      2793      2796
      2792      2789      2793      2794      2792      2789      2793      2795
      2792      2789      2793      2796      2789      2793      2796      2797
      2789      2793      2796      2798      2789      2793      2796      2799
      2794      2793      2796      2797      2794      2793      2796      2798
      2794      2793      2796      2799      2795      2793      2796      2797
      2795      2793      2796      2798      2795      2793      2796      2799
      2793      2796      2799      2800      2793      2796      2799      2801
      2793      2796      2799      2802      2797      2796      2799      2800
      2797      2796      2799      2801      2797      2796      2799      2802
      2798      2796      2799      2800      2798      2796      2799      2801
      2798      2796      2799      2802      2796      2799      2802      2803
      2796      2799      2802      2804      2796      2799      2802      2805
      2800      2799      2802      2803      2800      2799      2802      2804
      2800      2799      2802      2805      2801      2799      2802      2803
      2801      2799      2802      2804      2801      2799      2802      2805
      2799      2802      2805      2806      2799      2802      2805      2807
      2799      2802      2805      2808      2803      2802      2805      2806
      2803      2802      2805      2807      2803      2802      2805      2808
      2804      2802      2805      2806      2804      2802      2805      2807
      2804      2802      2805      2808      2802      2805      2808      2809
      2802      2805      2808      2810      2802      2805      2808      2811
      2806      2805      2808      2809      2806      2805      2808      2810
      2806      2805      2808      2811      2807      2805      2808      2809
      2807      2805      2808      2810      2807      2805      2808      2811
      2805      2808      2811      2812      2805      2808      2811      2813
      2805      2808      2811      2814      2809      2808      2811      2812
      2809      2808      2811      2813      2809      2808      2811      2814
      2810      2808      2811      2812      2810      2808      2811      2813
      2810      2808      2811      2814      2808      2811      2814      2815
      2808      2811      2814      2816      2808      2811      2814      2817
      2812      2811      2814      2815      2812      2811      2814      2816
      2812      2811      2814      2817      2813      2811      2814      2815
      2813      2811      2814      2816      2813      2811      2814      2817
      2811      2814      2817      2818      2811      2814      2817      2819
      2811      2814      2817      2820      2815      2814      2817      2818
      2815      2814      2817      2819      2815      2814      2817      2820
      2816      2814      2817      2818      2816      2814      2817      2819
      2816      2814      2817      2820      2814      2817      2820      2821
      2814      2817      2820      2822      2814      2817      2820      2823
      2818      2817      2820      2821      2818      2817      2820      2822
      2818      2817      2820      2823      2819      2817      2820      2821
      2819      2817      2820      2822      2819      2817      2820      2823
      2817      2820      2823      2824      2817      2820      2823      2825
      2817      2820      2823      2826      2821      2820      2823      2824
      2821      2820      2823      2825      2821      2820      2823      2826
      2822      2820      2823      2824      2822      2820      2823      2825
      2822      2820      2823      2826      2820      2823      2826      2827
      2820      2823      2826      2828      2820      2823      2826      2829
      2824      2823      2826      2827      2824      2823      2826      2828
      2824      2823      2826      2829      2825      2823      2826      2827
      2825      2823      2826      2828      2825      2823      2826      2829
      2823      2826      2829      2830      2823      2826      2829      2831
      2823      2826      2829      2832      2827      2826      2829      2830
      2827      2826      2829      2831      2827      2826      2829      2832
      2828      2826      2829      2830      2828      2826      2829      2831
      2828      2826      2829      2832      2826      2829      2832      2835
      2826      2829      2832      2833      2826      2829      2832      2834
      2830      2829      2832      2835      2830      2829      2832      2833
      2830      2829      2832      2834      2831      2829      2832      2835
      2831      2829      2832      2833      2831      2829      2832      2834
      2836      2835      2832      2829      2837      2835      2832      2829
      2836      2835      2832      2833      2837      2835      2832      2833
      2836      2835      2832      2834      2837      2835      2832      2834
      2832      2835      2837      2838      2836      2835      2837      2838
      2835      2837      2838      2839      2835      2837      2838      2840
      2835      2837      2838      2841      2837      2838      2841      2842
      2837      2838      2841      2843      2837      2838      2841      2870
      2839      2838      2841      2842      2839      2838      2841      2843
      2839      2838      2841      2870      2840      2838      2841      2842
      2840      2838      2841      2843      2840      2838      2841      2870
      2838      2841      2843      2844      2838      2841      2843      2845
      2838      2841      2843      2846      2838      2841      2870      2871
      2842      2841      2843      2844      2842      2841      2843      2845
      2842      2841      2843      2846      2842      2841      2870      2871
      2844      2843      2841      2870      2845      2843      2841      2870
      2846      2843      2841      2870      2843      2841      2870      2871
      2841      2843      2846      2847      2844      2843      2846      2847
      2845      2843      2846      2847      2843      2846      2847      2848
      2843      2846      2847      2868      2843      2846      2847      2869
      2846      2847      2848      2849      2849      2848      2847      2868
      2849      2848      2847      2869      2847      2848      2849      2850
      2847      2848      2849      2851      2847      2848      2849      2852
      2848      2849      2852      2853      2848      2849      2852      2854
      2848      2849      2852      2855      2850      2849      2852      2853
      2850      2849      2852      2854      2850      2849      2852      2855
      2851      2849      2852      2853      2851      2849      2852      2854
      2851      2849      2852      2855      2849      2852      2855      2856
      2849      2852      2855      2860      2849      2852      2855      2864
      2853      2852      2855      2856      2853      2852      2855      2860
      2853      2852      2855      2864      2854      2852      2855      2856
      2854      2852      2855      2860      2854      2852      2855      2864
      2852      2855      2856      2857      2852      2855      2856      2858
      2852      2855      2856      2859      2852      2855      2860      2861
      2852      2855      2860      2862      2852      2855      2860      2863
      2852      2855      2864      2865      2852      2855      2864      2866
      2852      2855      2864      2867      2857      2856      2855      2860
      2858      2856      2855      2860      2859      2856      2855      2860
      2856      2855      2860      2861      2856      2855      2860      2862
      2856      2855      2860      2863      2857      2856      2855      2864
      2858      2856      2855      2864      2859      2856      2855      2864
      2856      2855      2864      2865      2856      2855      2864      2866
      2856      2855      2864      2867      2861      2860      2855      2864
      2862      2860      2855      2864      2863      2860      2855      2864
      2860      2855      2864      2865      2860      2855      2864      2866
      2860      2855      2864      2867      2841      2870      2871      2873
      2841      2870      2871      2872      2874      2873      2871      2870
      2875      2873      2871      2870      2876      2873      2871      2870
      2874      2873      2871      2872      2875      2873      2871      2872
      2876      2873      2871      2872      2871      2873      2876      2877
      2871      2873      2876      2878      2871      2873      2876      2879
      2874      2873      2876      2877      2874      2873      2876      2878
      2874      2873      2876      2879      2875      2873      2876      2877
      2875      2873      2876      2878      2875      2873      2876      2879
      2873      2876      2879      2880      2873      2876      2879      2881
      2873      2876      2879      2882      2877      2876      2879      2880
      2877      2876      2879      2881      2877      2876      2879      2882
      2878      2876      2879      2880      2878      2876      2879      2881
      2878      2876      2879      2882      2876      2879      2882      2883
      2876      2879      2882      2884      2876      2879      2882      2885
      2880      2879      2882      2883      2880      2879      2882      2884
      2880      2879      2882      2885      2881      2879      2882      2883
      2881      2879      2882      2884      2881      2879      2882      2885
      2879      2882      2885      2886      2879      2882      2885      2887
      2879      2882      2885      2888      2883      2882      2885      2886
      2883      2882      2885      2887      2883      2882      2885      2888
      2884      2882      2885      2886      2884      2882      2885      2887
      2884      2882      2885      2888      2882      2885      2888      2889
      2882      2885      2888      2890      2882      2885      2888      2891
      2886      2885      2888      2889      2886      2885      2888      2890
      2886      2885      2888      2891      2887      2885      2888      2889
      2887      2885      2888      2890      2887      2885      2888      2891
      2885      2888      2891      2892      2885      2888      2891      2893
      2885      2888      2891      2894      2889      2888      2891      2892
      2889      2888      2891      2893      2889      2888      2891      2894
      2890      2888      2891      2892      2890      2888      2891      2893
      2890      2888      2891      2894      2888      2891      2894      2895
      2888      2891      2894      2896      2892      2891      2894      2895
      2892      2891      2894      2896      2893      2891      2894      2895
      2893      2891      2894      2896      2891      2894      2896      2897
      2891      2894      2896      2898      2895      2894      2896      2897
      2895      2894      2896      2898      2894      2896      2898      2899
      2894      2896      2898      2900      2894      2896      2898      2901
      2897      2896      2898      2899      2897      2896      2898      2900
      2897      2896      2898      2901      2896      2898      2901      2902
      2896      2898      2901      2903      2896      2898      2901      2904
      2899      2898      2901      2902      2899      2898      2901      2903
      2899      2898      2901      2904      2900      2898      2901      2902
      2900      2898      2901      2903      2900      2898      2901      2904
      2898      2901      2904      2905      2898      2901      2904      2906
      2898      2901      2904      2907      2902      2901      2904      2905
      2902      2901      2904      2906      2902      2901      2904      2907
      2903      2901      2904      2905      2903      2901      2904      2906
      2903      2901      2904      2907      2901      2904      2907      2908
      2901      2904      2907      2909      2901      2904      2907      2910
      2905      2904      2907      2908      2905      2904      2907      2909
      2905      2904      2907      2910      2906      2904      2907      2908
      2906      2904      2907      2909      2906      2904      2907      2910
      2904      2907      2910      2911      2904      2907      2910      2912
      2904      2907      2910      2913      2908      2907      2910      2911
      2908      2907      2910      2912      2908      2907      2910      2913
      2909      2907      2910      2911      2909      2907      2910      2912
      2909      2907      2910      2913      2907      2910      2913      2914
      2907      2910      2913      2915      2907      2910      2913      2916
      2911      2910      2913      2914      2911      2910      2913      2915
      2911      2910      2913      2916      2912      2910      2913      2914
      2912      2910      2913      2915      2912      2910      2913      2916
      2910      2913      2916      2917      2910      2913      2916      2918
      2910      2913      2916      2919      2914      2913      2916      2917
      2914      2913      2916      2918      2914      2913      2916      2919
      2915      2913      2916      2917      2915      2913      2916      2918
      2915      2913      2916      2919      2913      2916      2919      2920
      2913      2916      2919      2921      2913      2916      2919      2922
      2917      2916      2919      2920      2917      2916      2919      2921
      2917      2916      2919      2922      2918      2916      2919      2920
      2918      2916      2919      2921      2918      2916      2919      2922
      2924      2923      2927      2928      2924      2923      2927      2929
      2924      2923      2927      2930      2925      2923      2927      2928
      2925      2923      2927      2929      2925      2923      2927      2930
      2926      2923      2927      2928      2926      2923      2927      2929
      2926      2923      2927      2930      2923      2927      2930      2931
      2923      2927      2930      2932      2923      2927      2930      2933
      2928      2927      2930      2931      2928      2927      2930      2932
      2928      2927      2930      2933      2929      2927      2930      2931
      2929      2927      2930      2932      2929      2927      2930      2933
      2927      2930      2933      2934      2927      2930      2933      2935
      2927      2930      2933      2936      2931      2930      2933      2934
      2931      2930      2933      2935      2931      2930      2933      2936
      2932      2930      2933      2934      2932      2930      2933      2935
      2932      2930      2933      2936      2930      2933      2936      2937
      2930      2933      2936      2938      2930      2933      2936      2939
      2934      2933      2936      2937      2934      2933      2936      2938
      2934      2933      2936      2939      2935      2933      2936      2937
      2935      2933      2936      2938      2935      2933      2936      2939
      2933      2936      2939      2940      2933      2936      2939      2941
      2933      2936      2939      2942      2937      2936      2939      2940
      2937      2936      2939      2941      2937      2936      2939      2942
      2938      2936      2939      2940      2938      2936      2939      2941
      2938      2936      2939      2942      2936      2939      2942      2943
      2936      2939      2942      2944      2936      2939      2942      2945
      2940      2939      2942      2943      2940      2939      2942      2944
      2940      2939      2942      2945      2941      2939      2942      2943
      2941      2939      2942      2944      2941      2939      2942      2945
      2939      2942      2945      2946      2939      2942      2945      2947
      2939      2942      2945      2948      2943      2942      2945      2946
      2943      2942      2945      2947      2943      2942      2945      2948
      2944      2942      2945      2946      2944      2942      2945      2947
      2944      2942      2945      2948      2942      2945      2948      2949
      2942      2945      2948      2950      2942      2945      2948      2951
      2946      2945      2948      2949      2946      2945      2948      2950
      2946      2945      2948      2951      2947      2945      2948      2949
      2947      2945      2948      2950      2947      2945      2948      2951
      2945      2948      2951      2952      2945      2948      2951      2953
      2945      2948      2951      2954      2949      2948      2951      2952
      2949      2948      2951      2953      2949      2948      2951      2954
      2950      2948      2951      2952      2950      2948      2951      2953
      2950      2948      2951      2954      2948      2951      2954      2955
      2948      2951      2954      2956      2948      2951      2954      2957
      2952      2951      2954      2955      2952      2951      2954      2956
      2952      2951      2954      2957      2953      2951      2954      2955
      2953      2951      2954      2956      2953      2951      2954      2957
      2951      2954      2957      2958      2951      2954      2957      2959
      2951      2954      2957      2960      2955      2954      2957      2958
      2955      2954      2957      2959      2955      2954      2957      2960
      2956      2954      2957      2958      2956      2954      2957      2959
      2956      2954      2957      2960      2954      2957      2960      2961
      2954      2957      2960      2962      2954      2957      2960      2963
      2958      2957      2960      2961      2958      2957      2960      2962
      2958      2957      2960      2963      2959      2957      2960      2961
      2959      2957      2960      2962      2959      2957      2960      2963
      2957      2960      2963      2964      2957      2960      2963      2965
      2957      2960      2963      2966      2961      2960      2963      2964
      2961      2960      2963      2965      2961      2960      2963      2966
      2962      2960      2963      2964      2962      2960      2963      2965
      2962      2960      2963      2966      2960      2963      2966      2969
      2960      2963      2966      2967      2960      2963      2966      2968
      2964      2963      2966      2969      2964      2963      2966      2967
      2964      2963      2966      2968      2965      2963      2966      2969
      2965      2963      2966      2967      2965      2963      2966      2968
      2970      2969      2966      2963      2971      2969      2966      2963
      2970      2969      2966      2967      2971      2969      2966      2967
      2970      2969      2966      2968      2971      2969      2966      2968
      2966      2969      2971      2972      2970      2969      2971      2972
      2969      2971      2972      2973      2969      2971      2972      2974
      2969      2971      2972      2975      2971      2972      2975      2976
      2971      2972      2975      2977      2971      2972      2975      3004
      2973      2972      2975      2976      2973      2972      2975      2977
      2973      2972      2975      3004      2974      2972      2975      2976
      2974      2972      2975      2977      2974      2972      2975      3004
      2972      2975      2977      2978      2972      2975      2977      2979
      2972      2975      2977      2980      2972      2975      3004      3005
      2976      2975      2977      2978      2976      2975      2977      2979
      2976      2975      2977      2980      2976      2975      3004      3005
      2978      2977      2975      3004      2979      2977      2975      3004
      2980      2977      2975      3004      2977      2975      3004      3005
      2975      2977      2980      2981      2978      2977      2980      2981
      2979      2977      2980      2981      2977      2980      2981      2982
      2977      2980      2981      3002      2977      2980      2981      3003
      2980      2981      2982      2983      2983      2982      2981      3002
      2983      2982      2981      3003      2981      2982      2983      2984
      2981      2982      2983      2985      2981      2982      2983      2986
      2982      2983      2986      2987      2982      2983      2986      2988
      2982      2983      2986      2989      2984      2983      2986      2987
      2984      2983      2986      2988      2984      2983      2986      2989
      2985      2983      2986      2987      2985      2983      2986      2988
      2985      2983      2986      2989      2983      2986      2989      2990
      2983      2986      2989      2994      2983      2986      2989      2998
      2987      2986      2989      2990      2987      2986      2989      2994
      2987      2986      2989      2998      2988      2986      2989      2990
      2988      2986      2989      2994      2988      2986      2989      2998
      2986      2989      2990      2991      2986      2989      2990      2992
      2986      2989      2990      2993      2986      2989      2994      2995
      2986      2989      2994      2996      2986      2989      2994      2997
      2986      2989      2998      2999      2986      2989      2998      3000
      2986      2989      2998      3001      2991      2990      2989      2994
      2992      2990      2989      2994      2993      2990      2989      2994
      2990      2989      2994      2995      2990      2989      2994      2996
      2990      2989      2994      2997      2991      2990      2989      2998
      2992      2990      2989      2998      2993      2990      2989      2998
      2990      2989      2998      2999      2990      2989      2998      3000
      2990      2989      2998      3001      2995      2994      2989      2998
      2996      2994      2989      2998      2997      2994      2989      2998
      2994      2989      2998      2999      2994      2989      2998      3000
      2994      2989      2998      3001      2975      3004      3005      3007
      2975      3004      3005      3006      3008      3007      3005      3004
      3009      3007      3005      3004      3010      3007      3005      3004
      3008      3007      3005      3006      3009      3007      3005      3006
      3010      3007      3005      3006      3005      3007      3010      3011
      3005      3007      3010      3012      3005      3007      3010      3013
      3008      3007      3010      3011      3008      3007      3010      3012
      3008      3007      3010      3013      3009      3007      3010      3011
      3009      3007      3010      3012      3009      3007      3010      3013
      3007      3010      3013      3014      3007      3010      3013      3015
      3007      3010      3013      3016      3011      3010      3013      3014
      3011      3010      3013      3015      3011      3010      3013      3016
      3012      3010      3013      3014      3012      3010      3013      3015
      3012      3010      3013      3016      3010      3013      3016      3017
      3010      3013      3016      3018      3010      3013      3016      3019
      3014      3013      3016      3017      3014      3013      3016      3018
      3014      3013      3016      3019      3015      3013      3016      3017
      3015      3013      3016      3018      3015      3013      3016      3019
      3013      3016      3019      3020      3013      3016      3019      3021
      3013      3016      3019      3022      3017      3016      3019      3020
      3017      3016      3019      3021      3017      3016      3019      3022
      3018      3016      3019      3020      3018      3016      3019      3021
      3018      3016      3019      3022      3016      3019      3022      3023
      3016      3019      3022      3024      3016      3019      3022      3025
      3020      3019      3022      3023      3020      3019      3022      3024
      3020      3019      3022      3025      3021      3019      3022      3023
      3021      3019      3022      3024      3021      3019      3022      3025
      3019      3022      3025      3026      3019      3022      3025      3027
      3019      3022      3025      3028      3023      3022      3025      3026
      3023      3022      3025      3027      3023      3022      3025      3028
      3024      3022      3025      3026      3024      3022      3025      3027
      3024      3022      3025      3028      3022      3025      3028      3029
      3022      3025      3028      3030      3026      3025      3028      3029
      3026      3025      3028      3030      3027      3025      3028      3029
      3027      3025      3028      3030      3025      3028      3030      3031
      3025      3028      3030      3032      3029      3028      3030      3031
      3029      3028      3030      3032      3028      3030      3032      3033
      3028      3030      3032      3034      3028      3030      3032      3035
      3031      3030      3032      3033      3031      3030      3032      3034
      3031      3030      3032      3035      3030      3032      3035      3036
      3030      3032      3035      3037      3030      3032      3035      3038
      3033      3032      3035      3036      3033      3032      3035      3037
      3033      3032      3035      3038      3034      3032      3035      3036
      3034      3032      3035      3037      3034      3032      3035      3038
      3032      3035      3038      3039      3032      3035      3038      3040
      3032      3035      3038      3041      3036      3035      3038      3039
      3036      3035      3038      3040      3036      3035      3038      3041
      3037      3035      3038      3039      3037      3035      3038      3040
      3037      3035      3038      3041      3035      3038      3041      3042
      3035      3038      3041      3043      3035      3038      3041      3044
      3039      3038      3041      3042      3039      3038      3041      3043
      3039      3038      3041      3044      3040      3038      3041      3042
      3040      3038      3041      3043      3040      3038      3041      3044
      3038      3041      3044      3045      3038      3041      3044      3046
      3038      3041      3044      3047      3042      3041      3044      3045
      3042      3041      3044      3046      3042      3041      3044      3047
      3043      3041      3044      3045      3043      3041      3044      3046
      3043      3041      3044      3047      3041      3044      3047      3048
      3041      3044      3047      3049      3041      3044      3047      3050
      3045      3044      3047      3048      3045      3044      3047      3049
      3045      3044      3047      3050      3046      3044      3047      3048
      3046      3044      3047      3049      3046      3044      3047      3050
      3044      3047      3050      3051      3044      3047      3050      3052
      3044      3047      3050      3053      3048      3047      3050      3051
      3048      3047      3050      3052      3048      3047      3050      3053
      3049      3047      3050      3051      3049      3047      3050      3052
      3049      3047      3050      3053      3047      3050      3053      3054
      3047      3050      3053      3055      3047      3050      3053      3056
      3051      3050      3053      3054      3051      3050      3053      3055
      3051      3050      3053      3056      3052      3050      3053      3054
      3052      3050      3053      3055      3052      3050      3053      3056
      3058      3057      3061      3062      3058      3057      3061      3063
      3058      3057      3061      3064      3059      3057      3061      3062
      3059      3057      3061      3063      3059      3057      3061      3064
      3060      3057      3061      3062      3060      3057      3061      3063
      3060      3057      3061      3064      3057      3061      3064      3065
      3057      3061      3064      3066      3057      3061      3064      3067
      3062      3061      3064      3065      3062      3061      3064      3066
      3062      3061      3064      3067      3063      3061      3064      3065
      3063      3061      3064      3066      3063      3061      3064      3067
      3061      3064      3067      3068      3061      3064      3067      3069
      3061      3064      3067      3070      3065      3064      3067      3068
      3065      3064      3067      3069      3065      3064      3067      3070
      3066      3064      3067      3068      3066      3064      3067      3069
      3066      3064      3067      3070      3064      3067      3070      3071
      3064      3067      3070      3072      3064      3067      3070      3073
      3068      3067      3070      3071      3068      3067      3070      3072
      3068      3067      3070      3073      3069      3067      3070      3071
      3069      3067      3070      3072      3069      3067      3070      3073
      3067      3070      3073      3074      3067      3070      3073      3075
      3067      3070      3073      3076      3071      3070      3073      3074
      3071      3070      3073      3075      3071      3070      3073      3076
      3072      3070      3073      3074      3072      3070      3073      3075
      3072      3070      3073      3076      3070      3073      3076      3077
      3070      3073      3076      3078      3070      3073      3076      3079
      3074      3073      3076      3077      3074      3073      3076      3078
      3074      3073      3076      3079      3075      3073      3076      3077
      3075      3073      3076      3078      3075      3073      3076      3079
      3073      3076      3079      3080      3073      3076      3079      3081
      3073      3076      3079      3082      3077      3076      3079      3080
      3077      3076      3079      3081      3077      3076      3079      3082
      3078      3076      3079      3080      3078      3076      3079      3081
      3078      3076      3079      3082      3076      3079      3082      3083
      3076      3079      3082      3084      3076      3079      3082      3085
      3080      3079      3082      3083      3080      3079      3082      3084
      3080      3079      3082      3085      3081      3079      3082      3083
      3081      3079      3082      3084      3081      3079      3082      3085
      3079      3082      3085      3086      3079      3082      3085      3087
      3079      3082      3085      3088      3083      3082      3085      3086
      3083      3082      3085      3087      3083      3082      3085      3088
      3084      3082      3085      3086      3084      3082      3085      3087
      3084      3082      3085      3088      3082      3085      3088      3089
      3082      3085      3088      3090      3082      3085      3088      3091
      3086      3085      3088      3089      3086      3085      3088      3090
      3086      3085      3088      3091      3087      3085      3088      3089
      3087      3085      3088      3090      3087      3085      3088      3091
      3085      3088      3091      3092      3085      3088      3091      3093
      3085      3088      3091      3094      3089      3088      3091      3092
      3089      3088      3091      3093      3089      3088      3091      3094
      3090      3088      3091      3092      3090      3088      3091      3093
      3090      3088      3091      3094      3088      3091      3094      3095
      3088      3091      3094      3096      3088      3091      3094      3097
      3092      3091      3094      3095      3092      3091      3094      3096
      3092      3091      3094      3097      3093      3091      3094      3095
      3093      3091      3094      3096      3093      3091      3094      3097
      3091      3094      3097      3098      3091      3094      3097      3099
      3091      3094      3097      3100      3095      3094      3097      3098
      3095      3094      3097      3099      3095      3094      3097      3100
      3096      3094      3097      3098      3096      3094      3097      3099
      3096      3094      3097      3100      3094      3097      3100      3103
      3094      3097      3100      3101      3094      3097      3100      3102
      3098      3097      3100      3103      3098      3097      3100      3101
      3098      3097      3100      3102      3099      3097      3100      3103
      3099      3097      3100      3101      3099      3097      3100      3102
      3104      3103      3100      3097      3105      3103      3100      3097
      3104      3103      3100      3101      3105      3103      3100      3101
      3104      3103      3100      3102      3105      3103      3100      3102
      3100      3103      3105      3106      3104      3103      3105      3106
      3103      3105      3106      3107      3103      3105      3106      3108
      3103      3105      3106      3109      3105      3106      3109      3110
      3105      3106      3109      3111      3105      3106      3109      3138
      3107      3106      3109      3110      3107      3106      3109      3111
      3107      3106      3109      3138      3108      3106      3109      3110
      3108      3106      3109      3111      3108      3106      3109      3138
      3106      3109      3111      3112      3106      3109      3111      3113
      3106      3109      3111      3114      3106      3109      3138      3139
      3110      3109      3111      3112      3110      3109      3111      3113
      3110      3109      3111      3114      3110      3109      3138      3139
      3112      3111      3109      3138      3113      3111      3109      3138
      3114      3111      3109      3138      3111      3109      3138      3139
      3109      3111      3114      3115      3112      3111      3114      3115
      3113      3111      3114      3115      3111      3114      3115      3116
      3111      3114      3115      3136      3111      3114      3115      3137
      3114      3115      3116      3117      3117      3116      3115      3136
      3117      3116      3115      3137      3115      3116      3117      3118
      3115      3116      3117      3119      3115      3116      3117      3120
      3116      3117      3120      3121      3116      3117      3120      3122
      3116      3117      3120      3123      3118      3117      3120      3121
      3118      3117      3120      3122      3118      3117      3120      3123
      3119      3117      3120      3121      3119      3117      3120      3122
      3119      3117      3120      3123      3117      3120      3123      3124
      3117      3120      3123      3128      3117      3120      3123      3132
      3121      3120      3123      3124      3121      3120      3123      3128
      3121      3120      3123      3132      3122      3120      3123      3124
      3122      3120      3123      3128      3122      3120      3123      3132
      3120      3123      3124      3125      3120      3123      3124      3126
      3120      3123      3124      3127      3120      3123      3128      3129
      3120      3123      3128      3130      3120      3123      3128      3131
      3120      3123      3132      3133      3120      3123      3132      3134
      3120      3123      3132      3135      3125      3124      3123      3128
      3126      3124      3123      3128      3127      3124      3123      3128
      3124      3123      3128      3129      3124      3123      3128      3130
      3124      3123      3128      3131      3125      3124      3123      3132
      3126      3124      3123      3132      3127      3124      3123      3132
      3124      3123      3132      3133      3124      3123      3132      3134
      3124      3123      3132      3135      3129      3128      3123      3132
      3130      3128      3123      3132      3131      3128      3123      3132
      3128      3123      3132      3133      3128      3123      3132      3134
      3128      3123      3132      3135      3109      3138      3139      3141
      3109      3138      3139      3140      3142      3141      3139      3138
      3143      3141      3139      3138      3144      3141      3139      3138
      3142      3141      3139      3140      3143      3141      3139      3140
      3144      3141      3139      3140      3139      3141      3144      3145
      3139      3141      3144      3146      3139      3141      3144      3147
      3142      3141      3144      3145      3142      3141      3144      3146
      3142      3141      3144      3147      3143      3141      3144      3145
      3143      3141      3144      3146      3143      3141      3144      3147
      3141      3144      3147      3148      3141      3144      3147      3149
      3141      3144      3147      3150      3145      3144      3147      3148
      3145      3144      3147      3149      3145      3144      3147      3150
      3146      3144      3147      3148      3146      3144      3147      3149
      3146      3144      3147      3150      3144      3147      3150      3151
      3144      3147      3150      3152      3144      3147      3150      3153
      3148      3147      3150      3151      3148      3147      3150      3152
      3148      3147      3150      3153      3149      3147      3150      3151
      3149      3147      3150      3152      3149      3147      3150      3153
      3147      3150      3153      3154      3147      3150      3153      3155
      3147      3150      3153      3156      3151      3150      3153      3154
      3151      3150      3153      3155      3151      3150      3153      3156
      3152      3150      3153      3154      3152      3150      3153      3155
      3152      3150      3153      3156      3150      3153      3156      3157
      3150      3153      3156      3158      3150      3153      3156      3159
      3154      3153      3156      3157      3154      3153      3156      3158
      3154      3153      3156      3159      3155      3153      3156      3157
      3155      3153      3156      3158      3155      3153      3156      3159
      3153      3156      3159      3160      3153      3156      3159      3161
      3153      3156      3159      3162      3157      3156      3159      3160
      3157      3156      3159      3161      3157      3156      3159      3162
      3158      3156      3159      3160      3158      3156      3159      3161
      3158      3156      3159      3162      3156      3159      3162      3163
      3156      3159      3162      3164      3160      3159      3162      3163
      3160      3159      3162      3164      3161      3159      3162      3163
      3161      3159      3162      3164      3159      3162      3164      3165
      3159      3162      3164      3166      3163      3162      3164      3165
      3163      3162      3164      3166      3162      3164      3166      3167
      3162      3164      3166      3168      3162      3164      3166      3169
      3165      3164      3166      3167      3165      3164      3166      3168
      3165      3164      3166      3169      3164      3166      3169      3170
      3164      3166      3169      3171      3164      3166      3169      3172
      3167      3166      3169      3170      3167      3166      3169      3171
      3167      3166      3169      3172      3168      3166      3169      3170
      3168      3166      3169      3171      3168      3166      3169      3172
      3166      3169      3172      3173      3166      3169      3172      3174
      3166      3169      3172      3175      3170      3169      3172      3173
      3170      3169      3172      3174      3170      3169      3172      3175
      3171      3169      3172      3173      3171      3169      3172      3174
      3171      3169      3172      3175      3169      3172      3175      3176
      3169      3172      3175      3177      3169      3172      3175      3178
      3173      3172      3175      3176      3173      3172      3175      3177
      3173      3172      3175      3178      3174      3172      3175      3176
      3174      3172      3175      3177      3174      3172      3175      3178
      3172      3175      3178      3179      3172      3175      3178      3180
      3172      3175      3178      3181      3176      3175      3178      3179
      3176      3175      3178      3180      3176      3175      3178      3181
      3177      3175      3178      3179      3177      3175      3178      3180
      3177      3175      3178      3181      3175      3178      3181      3182
      3175      3178      3181      3183      3175      3178      3181      3184
      3179      3178      3181      3182      3179      3178      3181      3183
      3179      3178      3181      3184      3180      3178      3181      3182
      3180      3178      3181      3183      3180      3178      3181      3184
      3178      3181      3184      3185      3178      3181      3184      3186
      3178      3181      3184      3187      3182      3181      3184      3185
      3182      3181      3184      3186      3182      3181      3184      3187
      3183      3181      3184      3185      3183      3181      3184      3186
      3183      3181      3184      3187      3181      3184      3187      3188
      3181      3184      3187      3189      3181      3184      3187      3190
      3185      3184      3187      3188      3185      3184      3187      3189
      3185      3184      3187      3190      3186      3184      3187      3188
      3186      3184      3187      3189      3186      3184      3187      3190
      3192      3191      3195      3196      3192      3191      3195      3197
      3192      3191      3195      3198      3193      3191      3195      3196
      3193      3191      3195      3197      3193      3191      3195      3198
      3194      3191      3195      3196      3194      3191      3195      3197
      3194      3191      3195      3198      3191      3195      3198      3199
      3191      3195      3198      3200      3191      3195      3198      3201
      3196      3195      3198      3199      3196      3195      3198      3200
      3196      3195      3198      3201      3197      3195      3198      3199
      3197      3195      3198      3200      3197      3195      3198      3201
      3195      3198      3201      3202      3195      3198      3201      3203
      3195      3198      3201      3204      3199      3198      3201      3202
      3199      3198      3201      3203      3199      3198      3201      3204
      3200      3198      3201      3202      3200      3198      3201      3203
      3200      3198      3201      3204      3198      3201      3204      3205
      3198      3201      3204      3206      3198      3201      3204      3207
      3202      3201      3204      3205      3202      3201      3204      3206
      3202      3201      3204      3207      3203      3201      3204      3205
      3203      3201      3204      3206      3203      3201      3204      3207
      3201      3204      3207      3208      3201      3204      3207      3209
      3201      3204      3207      3210      3205      3204      3207      3208
      3205      3204      3207      3209      3205      3204      3207      3210
      3206      3204      3207      3208      3206      3204      3207      3209
      3206      3204      3207      3210      3204      3207      3210      3211
      3204      3207      3210      3212      3204      3207      3210      3213
      3208      3207      3210      3211      3208      3207      3210      3212
      3208      3207      3210      3213      3209      3207      3210      3211
      3209      3207      3210      3212      3209      3207      3210      3213
      3207      3210      3213      3214      3207      3210      3213      3215
      3207      3210      3213      3216      3211      3210      3213      3214
      3211      3210      3213      3215      3211      3210      3213      3216
      3212      3210      3213      3214      3212      3210      3213      3215
      3212      3210      3213      3216      3210      3213      3216      3217
      3210      3213      3216      3218      3210      3213      3216      3219
      3214      3213      3216      3217      3214      3213      3216      3218
      3214      3213      3216      3219      3215      3213      3216      3217
      3215      3213      3216      3218      3215      3213      3216      3219
      3213      3216      3219      3220      3213      3216      3219      3221
      3213      3216      3219      3222      3217      3216      3219      3220
      3217      3216      3219      3221      3217      3216      3219      3222
      3218      3216      3219      3220      3218      3216      3219      3221
      3218      3216      3219      3222      3216      3219      3222      3223
      3216      3219      3222      3224      3216      3219      3222      3225
      3220      3219      3222      3223      3220      3219      3222      3224
      3220      3219      3222      3225      3221      3219      3222      3223
      3221      3219      3222      3224      3221      3219      3222      3225
      3219      3222      3225      3226      3219      3222      3225      3227
      3219      3222      3225      3228      3223      3222      3225      3226
      3223      3222      3225      3227      3223      3222      3225      3228
      3224      3222      3225      3226      3224      3222      3225      3227
      3224      3222      3225      3228      3222      3225      3228      3229
      3222      3225      3228      3230      3222      3225      3228      3231
      3226      3225      3228      3229      3226      3225      3228      3230
      3226      3225      3228      3231      3227      3225      3228      3229
      3227      3225      3228      3230      3227      3225      3228      3231
      3225      3228      3231      3232      3225      3228      3231      3233
      3225      3228      3231      3234      3229      3228      3231      3232
      3229      3228      3231      3233      3229      3228      3231      3234
      3230      3228      3231      3232      3230      3228      3231      3233
      3230      3228      3231      3234      3228      3231      3234      3237
      3228      3231      3234      3235      3228      3231      3234      3236
      3232      3231      3234      3237      3232      3231      3234      3235
      3232      3231      3234      3236      3233      3231      3234      3237
      3233      3231      3234      3235      3233      3231      3234      3236
      3238      3237      3234      3231      3239      3237      3234      3231
      3238      3237      3234      3235      3239      3237      3234      3235
      3238      3237      3234      3236      3239      3237      3234      3236
      3234      3237      3239      3240      3238      3237      3239      3240
      3237      3239      3240      3241      3237      3239      3240      3242
      3237      3239      3240      3243      3239      3240      3243      3244
      3239      3240      3243      3245      3239      3240      3243      3272
      3241      3240      3243      3244      3241      3240      3243      3245
      3241      3240      3243      3272      3242      3240      3243      3244
      3242      3240      3243      3245      3242      3240      3243      3272
      3240      3243      3245      3246      3240      3243      3245      3247
      3240      3243      3245      3248      3240      3243      3272      3273
      3244      3243      3245      3246      3244      3243      3245      3247
      3244      3243      3245      3248      3244      3243      3272      3273
      3246      3245      3243      3272      3247      3245      3243      3272
      3248      3245      3243      3272      3245      3243      3272      3273
      3243      3245      3248      3249      3246      3245      3248      3249
      3247      3245      3248      3249      3245      3248      3249      3250
      3245      3248      3249      3270      3245      3248      3249      3271
      3248      3249      3250      3251      3251      3250      3249      3270
      3251      3250      3249      3271      3249      3250      3251      3252
      3249      3250      3251      3253      3249      3250      3251      3254
      3250      3251      3254      3255      3250      3251      3254      3256
      3250      3251      3254      3257      3252      3251      3254      3255
      3252      3251      3254      3256      3252      3251      3254      3257
      3253      3251      3254      3255      3253      3251      3254      3256
      3253      3251      3254      3257      3251      3254      3257      3258
      3251      3254      3257      3262      3251      3254      3257      3266
      3255      3254      3257      3258      3255      3254      3257      3262
      3255      3254      3257      3266      3256      3254      3257      3258
      3256      3254      3257      3262      3256      3254      3257      3266
      3254      3257      3258      3259      3254      3257      3258      3260
      3254      3257      3258      3261      3254      3257      3262      3263
      3254      3257      3262      3264      3254      3257      3262      3265
      3254      3257      3266      3267      3254      3257      3266      3268
      3254      3257      3266      3269      3259      3258      3257      3262
      3260      3258      3257      3262      3261      3258      3257      3262
      3258      3257      3262      3263      3258      3257      3262      3264
      3258      3257      3262      3265      3259      3258      3257      3266
      3260      3258      3257      3266      3261      3258      3257      3266
      3258      3257      3266      3267      3258      3257      3266      3268
      3258      3257      3266      3269      3263      3262      3257      3266
      3264      3262      3257      3266      3265      3262      3257      3266
      3262      3257      3266      3267      3262      3257      3266      3268
      3262      3257      3266      3269      3243      3272      3273      3275
      3243      3272      3273      3274      3276      3275      3273      3272
      3277      3275      3273      3272      3278      3275      3273      3272
      3276      3275      3273      3274      3277      3275      3273      3274
      3278      3275      3273      3274      3273      3275      3278      3279
      3273      3275      3278      3280      3273      3275      3278      3281
      3276      3275      3278      3279      3276      3275      3278      3280
      3276      3275      3278      3281      3277      3275      3278      3279
      3277      3275      3278      3280      3277      3275      3278      3281
      3275      3278      3281      3282      3275      3278      3281      3283
      3275      3278      3281      3284      3279      3278      3281      3282
      3279      3278      3281      3283      3279      3278      3281      3284
      3280      3278      3281      3282      3280      3278      3281      3283
      3280      3278      3281      3284      3278      3281      3284      3285
      3278      3281      3284      3286      3278      3281      3284      3287
      3282      3281      3284      3285      3282      3281      3284      3286
      3282      3281      3284      3287      3283      3281      3284      3285
      3283      3281      3284      3286      3283      3281      3284      3287
      3281      3284      3287      3288      3281      3284      3287      3289
      3281      3284      3287      3290      3285      3284      3287      3288
      3285      3284      3287      3289      3285      3284      3287      3290
      3286      3284      3287      3288      3286      3284      3287      3289
      3286      3284      3287      3290      3284      3287      3290      3291
      3284      3287      3290      3292      3284      3287      3290      3293
      3288      3287      3290      3291      3288      3287      3290      3292
      3288      3287      3290      3293      3289      3287      3290      3291
      3289      3287      3290      3292      3289      3287      3290      3293
      3287      3290      3293      3294      3287      3290      3293      3295
      3287      3290      3293      3296      3291      3290      3293      3294
      3291      3290      3293      3295      3291      3290      3293      3296
      3292      3290      3293      3294      3292      3290      3293      3295
      3292      3290      3293      3296      3290      3293      3296      3297
      3290      3293      3296      3298      3294      3293      3296      3297
      3294      3293      3296      3298      3295      3293      3296      3297
      3295      3293      3296      3298      3293      3296      3298      3299
      3293      3296      3298      3300      3297      3296      3298      3299
      3297      3296      3298      3300      3296      3298      3300      3301
      3296      3298      3300      3302      3296      3298      3300      3303
      3299      3298      3300      3301      3299      3298      3300      3302
      3299      3298      3300      3303      3298      3300      3303      3304
      3298      3300      3303      3305      3298      3300      3303      3306
      3301      3300      3303      3304      3301      3300      3303      3305
      3301      3300      3303      3306      3302      3300      3303      3304
      3302      3300      3303      3305      3302      3300      3303      3306
      3300      3303      3306      3307      3300      3303      3306      3308
      3300      3303      3306      3309      3304      3303      3306      3307
      3304      3303      3306      3308      3304      3303      3306      3309
      3305      3303      3306      3307      3305      3303      3306      3308
      3305      3303      3306      3309      3303      3306      3309      3310
      3303      3306      3309      3311      3303      3306      3309      3312
      3307      3306      3309      3310      3307      3306      3309      3311
      3307      3306      3309      3312      3308      3306      3309      3310
      3308      3306      3309      3311      3308      3306      3309      3312
      3306      3309      3312      3313      3306      3309      3312      3314
      3306      3309      3312      3315      3310      3309      3312      3313
      3310      3309      3312      3314      3310      3309      3312      3315
      3311      3309      3312      3313      3311      3309      3312      3314
      3311      3309      3312      3315      3309      3312      3315      3316
      3309      3312      3315      3317      3309      3312      3315      3318
      3313      3312      3315      3316      3313      3312      3315      3317
      3313      3312      3315      3318      3314      3312      3315      3316
      3314      3312      3315      3317      3314      3312      3315      3318
      3312      3315      3318      3319      3312      3315      3318      3320
      3312      3315      3318      3321      3316      3315      3318      3319
      3316      3315      3318      3320      3316      3315      3318      3321
      3317      3315      3318      3319      3317      3315      3318      3320
      3317      3315      3318      3321      3315      3318      3321      3322
      3315      3318      3321      3323      3315      3318      3321      3324
      3319      3318      3321      3322      3319      3318      3321      3323
      3319      3318      3321      3324      3320      3318      3321      3322
      3320      3318      3321      3323      3320      3318      3321      3324
      3326      3325      3329      3330      3326      3325      3329      3331
      3326      3325      3329      3332      3327      3325      3329      3330
      3327      3325      3329      3331      3327      3325      3329      3332
      3328      3325      3329      3330      3328      3325      3329      3331
      3328      3325      3329      3332      3325      3329      3332      3333
      3325      3329      3332      3334      3325      3329      3332      3335
      3330      3329      3332      3333      3330      3329      3332      3334
      3330      3329      3332      3335      3331      3329      3332      3333
      3331      3329      3332      3334      3331      3329      3332      3335
      3329      3332      3335      3336      3329      3332      3335      3337
      3329      3332      3335      3338      3333      3332      3335      3336
      3333      3332      3335      3337      3333      3332      3335      3338
      3334      3332      3335      3336      3334      3332      3335      3337
      3334      3332      3335      3338      3332      3335      3338      3339
      3332      3335      3338      3340      3332      3335      3338      3341
      3336      3335      3338      3339      3336      3335      3338      3340
      3336      3335      3338      3341      3337      3335      3338      3339
      3337      3335      3338      3340      3337      3335      3338      3341
      3335      3338      3341      3342      3335      3338      3341      3343
      3335      3338      3341      3344      3339      3338      3341      3342
      3339      3338      3341      3343      3339      3338      3341      3344
      3340      3338      3341      3342      3340      3338      3341      3343
      3340      3338      3341      3344      3338      3341      3344      3345
      3338      3341      3344      3346      3338      3341      3344      3347
      3342      3341      3344      3345      3342      3341      3344      3346
      3342      3341      3344      3347      3343      3341      3344      3345
      3343      3341      3344      3346      3343      3341      3344      3347
      3341      3344      3347      3348      3341      3344      3347      3349
      3341      3344      3347      3350      3345      3344      3347      3348
      3345      3344      3347      3349      3345      3344      3347      3350
      3346      3344      3347      3348      3346      3344      3347      3349
      3346      3344      3347      3350      3344      3347      3350      3351
      3344      3347      3350      3352      3344      3347      3350      3353
      3348      3347      3350      3351      3348      3347      3350      3352
      3348      3347      3350      3353      3349      3347      3350      3351
      3349      3347      3350      3352      3349      3347      3350      3353
      3347      3350      3353      3354      3347      3350      3353      3355
      3347      3350      3353      3356      3351      3350      3353      3354
      3351      3350      3353      3355      3351      3350      3353      3356
      3352      3350      3353      3354      3352      3350      3353      3355
      3352      3350      3353      3356      3350      3353      3356      3357
      3350      3353      3356      3358      3350      3353      3356      3359
      3354      3353      3356      3357      3354      3353      3356      3358
      3354      3353      3356      3359      3355      3353      3356      3357
      3355      3353      3356      3358      3355      3353      3356      3359
      3353      3356      3359      3360      3353      3356      3359      3361
      3353      3356      3359      3362      3357      3356      3359      3360
      3357      3356      3359      3361      3357      3356      3359      3362
      3358      3356      3359      3360      3358      3356      3359      3361
      3358      3356      3359      3362      3356      3359      3362      3363
      3356      3359      3362      3364      3356      3359      3362      3365
      3360      3359      3362      3363      3360      3359      3362      3364
      3360      3359      3362      3365      3361      3359      3362      3363
      3361      3359      3362      3364      3361      3359      3362      3365
      3359      3362      3365      3366      3359      3362      3365      3367
      3359      3362      3365      3368      3363      3362      3365      3366
      3363      3362      3365      3367      3363      3362      3365      3368
      3364      3362      3365      3366      3364      3362      3365      3367
      3364      3362      3365      3368      3362      3365      3368      3371
      3362      3365      3368      3369      3362      3365      3368      3370
      3366      3365      3368      3371      3366      3365      3368      3369
      3366      3365      3368      3370      3367      3365      3368      3371
      3367      3365      3368      3369      3367      3365      3368      3370
      3372      3371      3368      3365      3373      3371      3368      3365
      3372      3371      3368      3369      3373      3371      3368      3369
      3372      3371      3368      3370      3373      3371      3368      3370
      3368      3371      3373      3374      3372      3371      3373      3374
      3371      3373      3374      3375      3371      3373      3374      3376
      3371      3373      3374      3377      3373      3374      3377      3378
      3373      3374      3377      3379      3373      3374      3377      3406
      3375      3374      3377      3378      3375      3374      3377      3379
      3375      3374      3377      3406      3376      3374      3377      3378
      3376      3374      3377      3379      3376      3374      3377      3406
      3374      3377      3379      3380      3374      3377      3379      3381
      3374      3377      3379      3382      3374      3377      3406      3407
      3378      3377      3379      3380      3378      3377      3379      3381
      3378      3377      3379      3382      3378      3377      3406      3407
      3380      3379      3377      3406      3381      3379      3377      3406
      3382      3379      3377      3406      3379      3377      3406      3407
      3377      3379      3382      3383      3380      3379      3382      3383
      3381      3379      3382      3383      3379      3382      3383      3384
      3379      3382      3383      3404      3379      3382      3383      3405
      3382      3383      3384      3385      3385      3384      3383      3404
      3385      3384      3383      3405      3383      3384      3385      3386
      3383      3384      3385      3387      3383      3384      3385      3388
      3384      3385      3388      3389      3384      3385      3388      3390
      3384      3385      3388      3391      3386      3385      3388      3389
      3386      3385      3388      3390      3386      3385      3388      3391
      3387      3385      3388      3389      3387      3385      3388      3390
      3387      3385      3388      3391      3385      3388      3391      3392
      3385      3388      3391      3396      3385      3388      3391      3400
      3389      3388      3391      3392      3389      3388      3391      3396
      3389      3388      3391      3400      3390      3388      3391      3392
      3390      3388      3391      3396      3390      3388      3391      3400
      3388      3391      3392      3393      3388      3391      3392      3394
      3388      3391      3392      3395      3388      3391      3396      3397
      3388      3391      3396      3398      3388      3391      3396      3399
      3388      3391      3400      3401      3388      3391      3400      3402
      3388      3391      3400      3403      3393      3392      3391      3396
      3394      3392      3391      3396      3395      3392      3391      3396
      3392      3391      3396      3397      3392      3391      3396      3398
      3392      3391      3396      3399      3393      3392      3391      3400
      3394      3392      3391      3400      3395      3392      3391      3400
      3392      3391      3400      3401      3392      3391      3400      3402
      3392      3391      3400      3403      3397      3396      3391      3400
      3398      3396      3391      3400      3399      3396      3391      3400
      3396      3391      3400      3401      3396      3391      3400      3402
      3396      3391      3400      3403      3377      3406      3407      3409
      3377      3406      3407      3408      3410      3409      3407      3406
      3411      3409      3407      3406      3412      3409      3407      3406
      3410      3409      3407      3408      3411      3409      3407      3408
      3412      3409      3407      3408      3407      3409      3412      3413
      3407      3409      3412      3414      3407      3409      3412      3415
      3410      3409      3412      3413      3410      3409      3412      3414
      3410      3409      3412      3415      3411      3409      3412      3413
      3411      3409      3412      3414      3411      3409      3412      3415
      3409      3412      3415      3416      3409      3412      3415      3417
      3409      3412      3415      3418      3413      3412      3415      3416
      3413      3412      3415      3417      3413      3412      3415      3418
      3414      3412      3415      3416      3414      3412      3415      3417
      3414      3412      3415      3418      3412      3415      3418      3419
      3412      3415      3418      3420      3412      3415      3418      3421
      3416      3415      3418      3419      3416      3415      3418      3420
      3416      3415      3418      3421      3417      3415      3418      3419
      3417      3415      3418      3420      3417      3415      3418      3421
      3415      3418      3421      3422      3415      3418      3421      3423
      3415      3418      3421      3424      3419      3418      3421      3422
      3419      3418      3421      3423      3419      3418      3421      3424
      3420      3418      3421      3422      3420      3418      3421      3423
      3420      3418      3421      3424      3418      3421      3424      3425
      3418      3421      3424      3426      3418      3421      3424      3427
      3422      3421      3424      3425      3422      3421      3424      3426
      3422      3421      3424      3427      3423      3421      3424      3425
      3423      3421      3424      3426      3423      3421      3424      3427
      3421      3424      3427      3428      3421      3424      3427      3429
      3421      3424      3427      3430      3425      3424      3427      3428
      3425      3424      3427      3429      3425      3424      3427      3430
      3426      3424      3427      3428      3426      3424      3427      3429
      3426      3424      3427      3430      3424      3427      3430      3431
      3424      3427      3430      3432      3428      3427      3430      3431
      3428      3427      3430      3432      3429      3427      3430      3431
      3429      3427      3430      3432      3427      3430      3432      3433
      3427      3430      3432      3434      3431      3430      3432      3433
      3431      3430      3432      3434      3430      3432      3434      3435
      3430      3432      3434      3436      3430      3432      3434      3437
      3433      3432      3434      3435      3433      3432      3434      3436
      3433      3432      3434      3437      3432      3434      3437      3438
      3432      3434      3437      3439      3432      3434      3437      3440
      3435      3434      3437      3438      3435      3434      3437      3439
      3435      3434      3437      3440      3436      3434      3437      3438
      3436      3434      3437      3439      3436      3434      3437      3440
      3434      3437      3440      3441      3434      3437      3440      3442
      3434      3437      3440      3443      3438      3437      3440      3441
      3438      3437      3440      3442      3438      3437      3440      3443
      3439      3437      3440      3441      3439      3437      3440      3442
      3439      3437      3440      3443      3437      3440      3443      3444
      3437      3440      3443      3445      3437      3440      3443      3446
      3441      3440      3443      3444      3441      3440      3443      3445
      3441      3440      3443      3446      3442      3440      3443      3444
      3442      3440      3443      3445      3442      3440      3443      3446
      3440      3443      3446      3447      3440      3443      3446      3448
      3440      3443      3446      3449      3444      3443      3446      3447
      3444      3443      3446      3448      3444      3443      3446      3449
      3445      3443      3446      3447      3445      3443      3446      3448
      3445      3443      3446      3449      3443      3446      3449      3450
      3443      3446      3449      3451      3443      3446      3449      3452
      3447      3446      3449      3450      3447      3446      3449      3451
      3447      3446      3449      3452      3448      3446      3449      3450
      3448      3446      3449      3451      3448      3446      3449      3452
      3446      3449      3452      3453      3446      3449      3452      3454
      3446      3449      3452      3455      3450      3449      3452      3453
      3450      3449      3452      3454      3450      3449      3452      3455
      3451      3449      3452      3453      3451      3449      3452      3454
      3451      3449      3452      3455      3449      3452      3455      3456
      3449      3452      3455      3457      3449      3452      3455      3458
      3453      3452      3455      3456      3453      3452      3455      3457
      3453      3452      3455      3458      3454      3452      3455      3456
      3454      3452      3455      3457      3454      3452      3455      3458
      3460      3459      3463      3464      3460      3459      3463      3465
      3460      3459      3463      3466      3461      3459      3463      3464
      3461      3459      3463      3465      3461      3459      3463      3466
      3462      3459      3463      3464      3462      3459      3463      3465
      3462      3459      3463      3466      3459      3463      3466      3467
      3459      3463      3466      3468      3459      3463      3466      3469
      3464      3463      3466      3467      3464      3463      3466      3468
      3464      3463      3466      3469      3465      3463      3466      3467
      3465      3463      3466      3468      3465      3463      3466      3469
      3463      3466      3469      3470      3463      3466      3469      3471
      3463      3466      3469      3472      3467      3466      3469      3470
      3467      3466      3469      3471      3467      3466      3469      3472
      3468      3466      3469      3470      3468      3466      3469      3471
      3468      3466      3469      3472      3466      3469      3472      3473
      3466      3469      3472      3474      3466      3469      3472      3475
      3470      3469      3472      3473      3470      3469      3472      3474
      3470      3469      3472      3475      3471      3469      3472      3473
      3471      3469      3472      3474      3471      3469      3472      3475
      3469      3472      3475      3476      3469      3472      3475      3477
      3469      3472      3475      3478      3473      3472      3475      3476
      3473      3472      3475      3477      3473      3472      3475      3478
      3474      3472      3475      3476      3474      3472      3475      3477
      3474      3472      3475      3478      3472      3475      3478      3479
      3472      3475      3478      3480      3472      3475      3478      3481
      3476      3475      3478      3479      3476      3475      3478      3480
      3476      3475      3478      3481      3477      3475      3478      3479
      3477      3475      3478      3480      3477      3475      3478      3481
      3475      3478      3481      3482      3475      3478      3481      3483
      3475      3478      3481      3484      3479      3478      3481      3482
      3479      3478      3481      3483      3479      3478      3481      3484
      3480      3478      3481      3482      3480      3478      3481      3483
      3480      3478      3481      3484      3478      3481      3484      3485
      3478      3481      3484      3486      3478      3481      3484      3487
      3482      3481      3484      3485      3482      3481      3484      3486
      3482      3481      3484      3487      3483      3481      3484      3485
      3483      3481      3484      3486      3483      3481      3484      3487
      3481      3484      3487      3488      3481      3484      3487      3489
      3481      3484      3487      3490      3485      3484      3487      3488
      3485      3484      3487      3489      3485      3484      3487      3490
      3486      3484      3487      3488      3486      3484      3487      3489
      3486      3484      3487      3490      3484      3487      3490      3491
      3484      3487      3490      3492      3484      3487      3490      3493
      3488      3487      3490      3491      3488      3487      3490      3492
      3488      3487      3490      3493      3489      3487      3490      3491
      3489      3487      3490      3492      3489      3487      3490      3493
      3487      3490      3493      3494      3487      3490      3493      3495
      3487      3490      3493      3496      3491      3490      3493      3494
      3491      3490      3493      3495      3491      3490      3493      3496
      3492      3490      3493      3494      3492      3490      3493      3495
      3492      3490      3493      3496      3490      3493      3496      3497
      3490      3493      3496      3498      3490      3493      3496      3499
      3494      3493      3496      3497      3494      3493      3496      3498
      3494      3493      3496      3499      3495      3493      3496      3497
      3495      3493      3496      3498      3495      3493      3496      3499
      3493      3496      3499      3500      3493      3496      3499      3501
      3493      3496      3499      3502      3497      3496      3499      3500
      3497      3496      3499      3501      3497      3496      3499      3502
      3498      3496      3499      3500      3498      3496      3499      3501
      3498      3496      3499      3502      3496      3499      3502      3505
      3496      3499      3502      3503      3496      3499      3502      3504
      3500      3499      3502      3505      3500      3499      3502      3503
      3500      3499      3502      3504      3501      3499      3502      3505
      3501      3499      3502      3503      3501      3499      3502      3504
      3506      3505      3502      3499      3507      3505      3502      3499
      3506      3505      3502      3503      3507      3505      3502      3503
      3506      3505      3502      3504      3507      3505      3502      3504
      3502      3505      3507      3508      3506      3505      3507      3508
      3505      3507      3508      3509      3505      3507      3508      3510
      3505      3507      3508      3511      3507      3508      3511      3512
      3507      3508      3511      3513      3507      3508      3511      3540
      3509      3508      3511      3512      3509      3508      3511      3513
      3509      3508      3511      3540      3510      3508      3511      3512
      3510      3508      3511      3513      3510      3508      3511      3540
      3508      3511      3513      3514      3508      3511      3513      3515
      3508      3511      3513      3516      3508      3511      3540      3541
      3512      3511      3513      3514      3512      3511      3513      3515
      3512      3511      3513      3516      3512      3511      3540      3541
      3514      3513      3511      3540      3515      3513      3511      3540
      3516      3513      3511      3540      3513      3511      3540      3541
      3511      3513      3516      3517      3514      3513      3516      3517
      3515      3513      3516      3517      3513      3516      3517      3518
      3513      3516      3517      3538      3513      3516      3517      3539
      3516      3517      3518      3519      3519      3518      3517      3538
      3519      3518      3517      3539      3517      3518      3519      3520
      3517      3518      3519      3521      3517      3518      3519      3522
      3518      3519      3522      3523      3518      3519      3522      3524
      3518      3519      3522      3525      3520      3519      3522      3523
      3520      3519      3522      3524      3520      3519      3522      3525
      3521      3519      3522      3523      3521      3519      3522      3524
      3521      3519      3522      3525      3519      3522      3525      3526
      3519      3522      3525      3530      3519      3522      3525      3534
      3523      3522      3525      3526      3523      3522      3525      3530
      3523      3522      3525      3534      3524      3522      3525      3526
      3524      3522      3525      3530      3524      3522      3525      3534
      3522      3525      3526      3527      3522      3525      3526      3528
      3522      3525      3526      3529      3522      3525      3530      3531
      3522      3525      3530      3532      3522      3525      3530      3533
      3522      3525      3534      3535      3522      3525      3534      3536
      3522      3525      3534      3537      3527      3526      3525      3530
      3528      3526      3525      3530      3529      3526      3525      3530
      3526      3525      3530      3531      3526      3525      3530      3532
      3526      3525      3530      3533      3527      3526      3525      3534
      3528      3526      3525      3534      3529      3526      3525      3534
      3526      3525      3534      3535      3526      3525      3534      3536
      3526      3525      3534      3537      3531      3530      3525      3534
      3532      3530      3525      3534      3533      3530      3525      3534
      3530      3525      3534      3535      3530      3525      3534      3536
      3530      3525      3534      3537      3511      3540      3541      3543
      3511      3540      3541      3542      3544      3543      3541      3540
      3545      3543      3541      3540      3546      3543      3541      3540
      3544      3543      3541      3542      3545      3543      3541      3542
      3546      3543      3541      3542      3541      3543      3546      3547
      3541      3543      3546      3548      3541      3543      3546      3549
      3544      3543      3546      3547      3544      3543      3546      3548
      3544      3543      3546      3549      3545      3543      3546      3547
      3545      3543      3546      3548      3545      3543      3546      3549
      3543      3546      3549      3550      3543      3546      3549      3551
      3543      3546      3549      3552      3547      3546      3549      3550
      3547      3546      3549      3551      3547      3546      3549      3552
      3548      3546      3549      3550      3548      3546      3549      3551
      3548      3546      3549      3552      3546      3549      3552      3553
      3546      3549      3552      3554      3546      3549      3552      3555
      3550      3549      3552      3553      3550      3549      3552      3554
      3550      3549      3552      3555      3551      3549      3552      3553
      3551      3549      3552      3554      3551      3549      3552      3555
      3549      3552      3555      3556      3549      3552      3555      3557
      3549      3552      3555      3558      3553      3552      3555      3556
      3553      3552      3555      3557      3553      3552      3555      3558
      3554      3552      3555      3556      3554      3552      3555      3557
      3554      3552      3555      3558      3552      3555      3558      3559
      3552      3555      3558      3560      3552      3555      3558      3561
      3556      3555      3558      3559      3556      3555      3558      3560
      3556      3555      3558      3561      3557      3555      3558      3559
      3557      3555      3558      3560      3557      3555      3558      3561
      3555      3558      3561      3562      3555      3558      3561      3563
      3555      3558      3561      3564      3559      3558      3561      3562
      3559      3558      3561      3563      3559      3558      3561      3564
      3560      3558      3561      3562      3560      3558      3561      3563
      3560      3558      3561      3564      3558      3561      3564      3565
      3558      3561      3564      3566      3562      3561      3564      3565
      3562      3561      3564      3566      3563      3561      3564      3565
      3563      3561      3564      3566      3561      3564      3566      3567
      3561      3564      3566      3568      3565      3564      3566      3567
      3565      3564      3566      3568      3564      3566      3568      3569
      3564      3566      3568      3570      3564      3566      3568      3571
      3567      3566      3568      3569      3567      3566      3568      3570
      3567      3566      3568      3571      3566      3568      3571      3572
      3566      3568      3571      3573      3566      3568      3571      3574
      3569      3568      3571      3572      3569      3568      3571      3573
      3569      3568      3571      3574      3570      3568      3571      3572
      3570      3568      3571      3573      3570      3568      3571      3574
      3568      3571      3574      3575      3568      3571      3574      3576
      3568      3571      3574      3577      3572      3571      3574      3575
      3572      3571      3574      3576      3572      3571      3574      3577
      3573      3571      3574      3575      3573      3571      3574      3576
      3573      3571      3574      3577      3571      3574      3577      3578
      3571      3574      3577      3579      3571      3574      3577      3580
      3575      3574      3577      3578      3575      3574      3577      3579
      3575      3574      3577      3580      3576      3574      3577      3578
      3576      3574      3577      3579      3576      3574      3577      3580
      3574      3577      3580      3581      3574      3577      3580      3582
      3574      3577      3580      3583      3578      3577      3580      3581
      3578      3577      3580      3582      3578      3577      3580      3583
      3579      3577      3580      3581      3579      3577      3580      3582
      3579      3577      3580      3583      3577      3580      3583      3584
      3577      3580      3583      3585      3577      3580      3583      3586
      3581      3580      3583      3584      3581      3580      3583      3585
      3581      3580      3583      3586      3582      3580      3583      3584
      3582      3580      3583      3585      3582      3580      3583      3586
      3580      3583      3586      3587      3580      3583      3586      3588
      3580      3583      3586      3589      3584      3583      3586      3587
      3584      3583      3586      3588      3584      3583      3586      3589
      3585      3583      3586      3587      3585      3583      3586      3588
      3585      3583      3586      3589      3583      3586      3589      3590
      3583      3586      3589      3591      3583      3586      3589      3592
      3587      3586      3589      3590      3587      3586      3589      3591
      3587      3586      3589      3592      3588      3586      3589      3590
      3588      3586      3589      3591      3588      3586      3589      3592
      3594      3593      3597      3598      3594      3593      3597      3599
      3594      3593      3597      3600      3595      3593      3597      3598
      3595      3593      3597      3599      3595      3593      3597      3600
      3596      3593      3597      3598      3596      3593      3597      3599
      3596      3593      3597      3600      3593      3597      3600      3601
      3593      3597      3600      3602      3593      3597      3600      3603
      3598      3597      3600      3601      3598      3597      3600      3602
      3598      3597      3600      3603      3599      3597      3600      3601
      3599      3597      3600      3602      3599      3597      3600      3603
      3597      3600      3603      3604      3597      3600      3603      3605
      3597      3600      3603      3606      3601      3600      3603      3604
      3601      3600      3603      3605      3601      3600      3603      3606
      3602      3600      3603      3604      3602      3600      3603      3605
      3602      3600      3603      3606      3600      3603      3606      3607
      3600      3603      3606      3608      3600      3603      3606      3609
      3604      3603      3606      3607      3604      3603      3606      3608
      3604      3603      3606      3609      3605      3603      3606      3607
      3605      3603      3606      3608      3605      3603      3606      3609
      3603      3606      3609      3610      3603      3606      3609      3611
      3603      3606      3609      3612      3607      3606      3609      3610
      3607      3606      3609      3611      3607      3606      3609      3612
      3608      3606      3609      3610      3608      3606      3609      3611
      3608      3606      3609      3612      3606      3609      3612      3613
      3606      3609      3612      3614      3606      3609      3612      3615
      3610      3609      3612      3613      3610      3609      3612      3614
      3610      3609      3612      3615      3611      3609      3612      3613
      3611      3609      3612      3614      3611      3609      3612      3615
      3609      3612      3615      3616      3609      3612      3615      3617
      3609      3612      3615      3618      3613      3612      3615      3616
      3613      3612      3615      3617      3613      3612      3615      3618
      3614      3612      3615      3616      3614      3612      3615      3617
      3614      3612      3615      3618      3612      3615      3618      3619
      3612      3615      3618      3620      3612      3615      3618      3621
      3616      3615      3618      3619      3616      3615      3618      3620
      3616      3615      3618      3621      3617      3615      3618      3619
      3617      3615      3618      3620      3617      3615      3618      3621
      3615      3618      3621      3622      3615      3618      3621      3623
      3615      3618      3621      3624      3619      3618      3621      3622
      3619      3618      3621      3623      3619      3618      3621      3624
      3620      3618      3621      3622      3620      3618      3621      3623
      3620      3618      3621      3624      3618      3621      3624      3625
      3618      3621      3624      3626      3618      3621      3624      3627
      3622      3621      3624      3625      3622      3621      3624      3626
      3622      3621      3624      3627      3623      3621      3624      3625
      3623      3621      3624      3626      3623      3621      3624      3627
      3621      3624      3627      3628      3621      3624      3627      3629
      3621      3624      3627      3630      3625      3624      3627      3628
      3625      3624      3627      3629      3625      3624      3627      3630
      3626      3624      3627      3628      3626      3624      3627      3629
      3626      3624      3627      3630      3624      3627      3630      3631
      3624      3627      3630      3632      3624      3627      3630      3633
      3628      3627      3630      3631      3628      3627      3630      3632
      3628      3627      3630      3633      3629      3627      3630      3631
      3629      3627      3630      3632      3629      3627      3630      3633
      3627      3630      3633      3634      3627      3630      3633      3635
      3627      3630      3633      3636      3631      3630      3633      3634
      3631      3630      3633      3635      3631      3630      3633      3636
      3632      3630      3633      3634      3632      3630      3633      3635
      3632      3630      3633      3636      3630      3633      3636      3639
      3630      3633      3636      3637      3630      3633      3636      3638
      3634      3633      3636      3639      3634      3633      3636      3637
      3634      3633      3636      3638      3635      3633      3636      3639
      3635      3633      3636      3637      3635      3633      3636      3638
      3640      3639      3636      3633      3641      3639      3636      3633
      3640      3639      3636      3637      3641      3639      3636      3637
      3640      3639      3636      3638      3641      3639      3636      3638
      3636      3639      3641      3642      3640      3639      3641      3642
      3639      3641      3642      3643      3639      3641      3642      3644
      3639      3641      3642      3645      3641      3642      3645      3646
      3641      3642      3645      3647      3641      3642      3645      3674
      3643      3642      3645      3646      3643      3642      3645      3647
      3643      3642      3645      3674      3644      3642      3645      3646
      3644      3642      3645      3647      3644      3642      3645      3674
      3642      3645      3647      3648      3642      3645      3647      3649
      3642      3645      3647      3650      3642      3645      3674      3675
      3646      3645      3647      3648      3646      3645      3647      3649
      3646      3645      3647      3650      3646      3645      3674      3675
      3648      3647      3645      3674      3649      3647      3645      3674
      3650      3647      3645      3674      3647      3645      3674      3675
      3645      3647      3650      3651      3648      3647      3650      3651
      3649      3647      3650      3651      3647      3650      3651      3652
      3647      3650      3651      3672      3647      3650      3651      3673
      3650      3651      3652      3653      3653      3652      3651      3672
      3653      3652      3651      3673      3651      3652      3653      3654
      3651      3652      3653      3655      3651      3652      3653      3656
      3652      3653      3656      3657      3652      3653      3656      3658
      3652      3653      3656      3659      3654      3653      3656      3657
      3654      3653      3656      3658      3654      3653      3656      3659
      3655      3653      3656      3657      3655      3653      3656      3658
      3655      3653      3656      3659      3653      3656      3659      3660
      3653      3656      3659      3664      3653      3656      3659      3668
      3657      3656      3659      3660      3657      3656      3659      3664
      3657      3656      3659      3668      3658      3656      3659      3660
      3658      3656      3659      3664      3658      3656      3659      3668
      3656      3659      3660      3661      3656      3659      3660      3662
      3656      3659      3660      3663      3656      3659      3664      3665
      3656      3659      3664      3666      3656      3659      3664      3667
      3656      3659      3668      3669      3656      3659      3668      3670
      3656      3659      3668      3671      3661      3660      3659      3664
      3662      3660      3659      3664      3663      3660      3659      3664
      3660      3659      3664      3665      3660      3659      3664      3666
      3660      3659      3664      3667      3661      3660      3659      3668
      3662      3660      3659      3668      3663      3660      3659      3668
      3660      3659      3668      3669      3660      3659      3668      3670
      3660      3659      3668      3671      3665      3664      3659      3668
      3666      3664      3659      3668      3667      3664      3659      3668
      3664      3659      3668      3669      3664      3659      3668      3670
      3664      3659      3668      3671      3645      3674      3675      3677
      3645      3674      3675      3676      3678      3677      3675      3674
      3679      3677      3675      3674      3680      3677      3675      3674
      3678      3677      3675      3676      3679      3677      3675      3676
      3680      3677      3675      3676      3675      3677      3680      3681
      3675      3677      3680      3682      3675      3677      3680      3683
      3678      3677      3680      3681      3678      3677      3680      3682
      3678      3677      3680      3683      3679      3677      3680      3681
      3679      3677      3680      3682      3679      3677      3680      3683
      3677      3680      3683      3684      3677      3680      3683      3685
      3677      3680      3683      3686      3681      3680      3683      3684
      3681      3680      3683      3685      3681      3680      3683      3686
      3682      3680      3683      3684      3682      3680      3683      3685
      3682      3680      3683      3686      3680      3683      3686      3687
      3680      3683      3686      3688      3680      3683      3686      3689
      3684      3683      3686      3687      3684      3683      3686      3688
      3684      3683      3686      3689      3685      3683      3686      3687
      3685      3683      3686      3688      3685      3683      3686      3689
      3683      3686      3689      3690      3683      3686      3689      3691
      3683      3686      3689      3692      3687      3686      3689      3690
      3687      3686      3689      3691      3687      3686      3689      3692
      3688      3686      3689      3690      3688      3686      3689      3691
      3688      3686      3689      3692      3686      3689      3692      3693
      3686      3689      3692      3694      3686      3689      3692      3695
      3690      3689      3692      3693      3690      3689      3692      3694
      3690      3689      3692      3695      3691      3689      3692      3693
      3691      3689      3692      3694      3691      3689      3692      3695
      3689      3692      3695      3696      3689      3692      3695      3697
      3689      3692      3695      3698      3693      3692      3695      3696
      3693      3692      3695      3697      3693      3692      3695      3698
      3694      3692      3695      3696      3694      3692      3695      3697
      3694      3692      3695      3698      3692      3695      3698      3699
      3692      3695      3698      3700      3696      3695      3698      3699
      3696      3695      3698      3700      3697      3695      3698      3699
      3697      3695      3698      3700      3695      3698      3700      3701
      3695      3698      3700      3702      3699      3698      3700      3701
      3699      3698      3700      3702      3698      3700      3702      3703
      3698      3700      3702      3704      3698      3700      3702      3705
      3701      3700      3702      3703      3701      3700      3702      3704
      3701      3700      3702      3705      3700      3702      3705      3706
      3700      3702      3705      3707      3700      3702      3705      3708
      3703      3702      3705      3706      3703      3702      3705      3707
      3703      3702      3705      3708      3704      3702      3705      3706
      3704      3702      3705      3707      3704      3702      3705      3708
      3702      3705      3708      3709      3702      3705      3708      3710
      3702      3705      3708      3711      3706      3705      3708      3709
      3706      3705      3708      3710      3706      3705      3708      3711
      3707      3705      3708      3709      3707      3705      3708      3710
      3707      3705      3708      3711      3705      3708      3711      3712
      3705      3708      3711      3713      3705      3708      3711      3714
      3709      3708      3711      3712      3709      3708      3711      3713
      3709      3708      3711      3714      3710      3708      3711      3712
      3710      3708      3711      3713      3710      3708      3711      3714
      3708      3711      3714      3715      3708      3711      3714      3716
      3708      3711      3714      3717      3712      3711      3714      3715
      3712      3711      3714      3716      3712      3711      3714      3717
      3713      3711      3714      3715      3713      3711      3714      3716
      3713      3711      3714      3717      3711      3714      3717      3718
      3711      3714      3717      3719      3711      3714      3717      3720
      3715      3714      3717      3718      3715      3714      3717      3719
      3715      3714      3717      3720      3716      3714      3717      3718
      3716      3714      3717      3719      3716      3714      3717      3720
      3714      3717      3720      3721      3714      3717      3720      3722
      3714      3717      3720      3723      3718      3717      3720      3721
      3718      3717      3720      3722      3718      3717      3720      3723
      3719      3717      3720      3721      3719      3717      3720      3722
      3719      3717      3720      3723      3717      3720      3723      3724
      3717      3720      3723      3725      3717      3720      3723      3726
      3721      3720      3723      3724      3721      3720      3723      3725
      3721      3720      3723      3726      3722      3720      3723      3724
      3722      3720      3723      3725      3722      3720      3723      3726
      3728      3727      3731      3732      3728      3727      3731      3733
      3728      3727      3731      3734      3729      3727      3731      3732
      3729      3727      3731      3733      3729      3727      3731      3734
      3730      3727      3731      3732      3730      3727      3731      3733
      3730      3727      3731      3734      3727      3731      3734      3735
      3727      3731      3734      3736      3727      3731      3734      3737
      3732      3731      3734      3735      3732      3731      3734      3736
      3732      3731      3734      3737      3733      3731      3734      3735
      3733      3731      3734      3736      3733      3731      3734      3737
      3731      3734      3737      3738      3731      3734      3737      3739
      3731      3734      3737      3740      3735      3734      3737      3738
      3735      3734      3737      3739      3735      3734      3737      3740
      3736      3734      3737      3738      3736      3734      3737      3739
      3736      3734      3737      3740      3734      3737      3740      3741
      3734      3737      3740      3742      3734      3737      3740      3743
      3738      3737      3740      3741      3738      3737      3740      3742
      3738      3737      3740      3743      3739      3737      3740      3741
      3739      3737      3740      3742      3739      3737      3740      3743
      3737      3740      3743      3744      3737      3740      3743      3745
      3737      3740      3743      3746      3741      3740      3743      3744
      3741      3740      3743      3745      3741      3740      3743      3746
      3742      3740      3743      3744      3742      3740      3743      3745
      3742      3740      3743      3746      3740      3743      3746      3747
      3740      3743      3746      3748      3740      3743      3746      3749
      3744      3743      3746      3747      3744      3743      3746      3748
      3744      3743      3746      3749      3745      3743      3746      3747
      3745      3743      3746      3748      3745      3743      3746      3749
      3743      3746      3749      3750      3743      3746      3749      3751
      3743      3746      3749      3752      3747      3746      3749      3750
      3747      3746      3749      3751      3747      3746      3749      3752
      3748      3746      3749      3750      3748      3746      3749      3751
      3748      3746      3749      3752      3746      3749      3752      3753
      3746      3749      3752      3754      3746      3749      3752      3755
      3750      3749      3752      3753      3750      3749      3752      3754
      3750      3749      3752      3755      3751      3749      3752      3753
      3751      3749      3752      3754      3751      3749      3752      3755
      3749      3752      3755      3756      3749      3752      3755      3757
      3749      3752      3755      3758      3753      3752      3755      3756
      3753      3752      3755      3757      3753      3752      3755      3758
      3754      3752      3755      3756      3754      3752      3755      3757
      3754      3752      3755      3758      3752      3755      3758      3759
      3752      3755      3758      3760      3752      3755      3758      3761
      3756      3755      3758      3759      3756      3755      3758      3760
      3756      3755      3758      3761      3757      3755      3758      3759
      3757      3755      3758      3760      3757      3755      3758      3761
      3755      3758      3761      3762      3755      3758      3761      3763
      3755      3758      3761      3764      3759      3758      3761      3762
      3759      3758      3761      3763      3759      3758      3761      3764
      3760      3758      3761      3762      3760      3758      3761      3763
      3760      3758      3761      3764      3758      3761      3764      3765
      3758      3761      3764      3766      3758      3761      3764      3767
      3762      3761      3764      3765      3762      3761      3764      3766
      3762      3761      3764      3767      3763      3761      3764      3765
      3763      3761      3764      3766      3763      3761      3764      3767
      3761      3764      3767      3768      3761      3764      3767      3769
      3761      3764      3767      3770      3765      3764      3767      3768
      3765      3764      3767      3769      3765      3764      3767      3770
      3766      3764      3767      3768      3766      3764      3767      3769
      3766      3764      3767      3770      3764      3767      3770      3773
      3764      3767      3770      3771      3764      3767      3770      3772
      3768      3767      3770      3773      3768      3767      3770      3771
      3768      3767      3770      3772      3769      3767      3770      3773
      3769      3767      3770      3771      3769      3767      3770      3772
      3774      3773      3770      3767      3775      3773      3770      3767
      3774      3773      3770      3771      3775      3773      3770      3771
      3774      3773      3770      3772      3775      3773      3770      3772
      3770      3773      3775      3776      3774      3773      3775      3776
      3773      3775      3776      3777      3773      3775      3776      3778
      3773      3775      3776      3779      3775      3776      3779      3780
      3775      3776      3779      3781      3775      3776      3779      3808
      3777      3776      3779      3780      3777      3776      3779      3781
      3777      3776      3779      3808      3778      3776      3779      3780
      3778      3776      3779      3781      3778      3776      3779      3808
      3776      3779      3781      3782      3776      3779      3781      3783
      3776      3779      3781      3784      3776      3779      3808      3809
      3780      3779      3781      3782      3780      3779      3781      3783
      3780      3779      3781      3784      3780      3779      3808      3809
      3782      3781      3779      3808      3783      3781      3779      3808
      3784      3781      3779      3808      3781      3779      3808      3809
      3779      3781      3784      3785      3782      3781      3784      3785
      3783      3781      3784      3785      3781      3784      3785      3786
      3781      3784      3785      3806      3781      3784      3785      3807
      3784      3785      3786      3787      3787      3786      3785      3806
      3787      3786      3785      3807      3785      3786      3787      3788
      3785      3786      3787      3789      3785      3786      3787      3790
      3786      3787      3790      3791      3786      3787      3790      3792
      3786      3787      3790      3793      3788      3787      3790      3791
      3788      3787      3790      3792      3788      3787      3790      3793
      3789      3787      3790      3791      3789      3787      3790      3792
      3789      3787      3790      3793      3787      3790      3793      3794
      3787      3790      3793      3798      3787      3790      3793      3802
      3791      3790      3793      3794      3791      3790      3793      3798
      3791      3790      3793      3802      3792      3790      3793      3794
      3792      3790      3793      3798      3792      3790      3793      3802
      3790      3793      3794      3795      3790      3793      3794      3796
      3790      3793      3794      3797      3790      3793      3798      3799
      3790      3793      3798      3800      3790      3793      3798      3801
      3790      3793      3802      3803      3790      3793      3802      3804
      3790      3793      3802      3805      3795      3794      3793      3798
      3796      3794      3793      3798      3797      3794      3793      3798
      3794      3793      3798      3799      3794      3793      3798      3800
      3794      3793      3798      3801      3795      3794      3793      3802
      3796      3794      3793      3802      3797      3794      3793      3802
      3794      3793      3802      3803      3794      3793      3802      3804
      3794      3793      3802      3805      3799      3798      3793      3802
      3800      3798      3793      3802      3801      3798      3793      3802
      3798      3793      3802      3803      3798      3793      3802      3804
      3798      3793      3802      3805      3779      3808      3809      3811
      3779      3808      3809      3810      3812      3811      3809      3808
      3813      3811      3809      3808      3814      3811      3809      3808
      3812      3811      3809      3810      3813      3811      3809      3810
      3814      3811      3809      3810      3809      3811      3814      3815
      3809      3811      3814      3816      3809      3811      3814      3817
      3812      3811      3814      3815      3812      3811      3814      3816
      3812      3811      3814      3817      3813      3811      3814      3815
      3813      3811      3814      3816      3813      3811      3814      3817
      3811      3814      3817      3818      3811      3814      3817      3819
      3811      3814      3817      3820      3815      3814      3817      3818
      3815      3814      3817      3819      3815      3814      3817      3820
      3816      3814      3817      3818      3816      3814      3817      3819
      3816      3814      3817      3820      3814      3817      3820      3821
      3814      3817      3820      3822      3814      3817      3820      3823
      3818      3817      3820      3821      3818      3817      3820      3822
      3818      3817      3820      3823      3819      3817      3820      3821
      3819      3817      3820      3822      3819      3817      3820      3823
      3817      3820      3823      3824      3817      3820      3823      3825
      3817      3820      3823      3826      3821      3820      3823      3824
      3821      3820      3823      3825      3821      3820      3823      3826
      3822      3820      3823      3824      3822      3820      3823      3825
      3822      3820      3823      3826      3820      3823      3826      3827
      3820      3823      3826      3828      3820      3823      3826      3829
      3824      3823      3826      3827      3824      3823      3826      3828
      3824      3823      3826      3829      3825      3823      3826      3827
      3825      3823      3826      3828      3825      3823      3826      3829
      3823      3826      3829      3830      3823      3826      3829      3831
      3823      3826      3829      3832      3827      3826      3829      3830
      3827      3826      3829      3831      3827      3826      3829      3832
      3828      3826      3829      3830      3828      3826      3829      3831
      3828      3826      3829      3832      3826      3829      3832      3833
      3826      3829      3832      3834      3830      3829      3832      3833
      3830      3829      3832      3834      3831      3829      3832      3833
      3831      3829      3832      3834      3829      3832      3834      3835
      3829      3832      3834      3836      3833      3832      3834      3835
      3833      3832      3834      3836      3832      3834      3836      3837
      3832      3834      3836      3838      3832      3834      3836      3839
      3835      3834      3836      3837      3835      3834      3836      3838
      3835      3834      3836      3839      3834      3836      3839      3840
      3834      3836      3839      3841      3834      3836      3839      3842
      3837      3836      3839      3840      3837      3836      3839      3841
      3837      3836      3839      3842      3838      3836      3839      3840
      3838      3836      3839      3841      3838      3836      3839      3842
      3836      3839      3842      3843      3836      3839      3842      3844
      3836      3839      3842      3845      3840      3839      3842      3843
      3840      3839      3842      3844      3840      3839      3842      3845
      3841      3839      3842      3843      3841      3839      3842      3844
      3841      3839      3842      3845      3839      3842      3845      3846
      3839      3842      3845      3847      3839      3842      3845      3848
      3843      3842      3845      3846      3843      3842      3845      3847
      3843      3842      3845      3848      3844      3842      3845      3846
      3844      3842      3845      3847      3844      3842      3845      3848
      3842      3845      3848      3849      3842      3845      3848      3850
      3842      3845      3848      3851      3846      3845      3848      3849
      3846      3845      3848      3850      3846      3845      3848      3851
      3847      3845      3848      3849      3847      3845      3848      3850
      3847      3845      3848      3851      3845      3848      3851      3852
      3845      3848      3851      3853      3845      3848      3851      3854
      3849      3848      3851      3852      3849      3848      3851      3853
      3849      3848      3851      3854      3850      3848      3851      3852
      3850      3848      3851      3853      3850      3848      3851      3854
      3848      3851      3854      3855      3848      3851      3854      3856
      3848      3851      3854      3857      3852      3851      3854      3855
      3852      3851      3854      3856      3852      3851      3854      3857
      3853      3851      3854      3855      3853      3851      3854      3856
      3853      3851      3854      3857      3851      3854      3857      3858
      3851      3854      3857      3859      3851      3854      3857      3860
      3855      3854      3857      3858      3855      3854      3857      3859
      3855      3854      3857      3860      3856      3854      3857      3858
      3856      3854      3857      3859      3856      3854      3857      3860
      3862      3861      3865      3866      3862      3861      3865      3867
      3862      3861      3865      3868      3863      3861      3865      3866
      3863      3861      3865      3867      3863      3861      3865      3868
      3864      3861      3865      3866      3864      3861      3865      3867
      3864      3861      3865      3868      3861      3865      3868      3869
      3861      3865      3868      3870      3861      3865      3868      3871
      3866      3865      3868      3869      3866      3865      3868      3870
      3866      3865      3868      3871      3867      3865      3868      3869
      3867      3865      3868      3870      3867      3865      3868      3871
      3865      3868      3871      3872      3865      3868      3871      3873
      3865      3868      3871      3874      3869      3868      3871      3872
      3869      3868      3871      3873      3869      3868      3871      3874
      3870      3868      3871      3872      3870      3868      3871      3873
      3870      3868      3871      3874      3868      3871      3874      3875
      3868      3871      3874      3876      3868      3871      3874      3877
      3872      3871      3874      3875      3872      3871      3874      3876
      3872      3871      3874      3877      3873      3871      3874      3875
      3873      3871      3874      3876      3873      3871      3874      3877
      3871      3874      3877      3878      3871      3874      3877      3879
      3871      3874      3877      3880      3875      3874      3877      3878
      3875      3874      3877      3879      3875      3874      3877      3880
      3876      3874      3877      3878      3876      3874      3877      3879
      3876      3874      3877      3880      3874      3877      3880      3881
      3874      3877      3880      3882      3874      3877      3880      3883
      3878      3877      3880      3881      3878      3877      3880      3882
      3878      3877      3880      3883      3879      3877      3880      3881
      3879      3877      3880      3882      3879      3877      3880      3883
      3877      3880      3883      3884      3877      3880      3883      3885
      3877      3880      3883      3886      3881      3880      3883      3884
      3881      3880      3883      3885      3881      3880      3883      3886
      3882      3880      3883      3884      3882      3880      3883      3885
      3882      3880      3883      3886      3880      3883      3886      3887
      3880      3883      3886      3888      3880      3883      3886      3889
      3884      3883      3886      3887      3884      3883      3886      3888
      3884      3883      3886      3889      3885      3883      3886      3887
      3885      3883      3886      3888      3885      3883      3886      3889
      3883      3886      3889      3890      3883      3886      3889      3891
      3883      3886      3889      3892      3887      3886      3889      3890
      3887      3886      3889      3891      3887      3886      3889      3892
      3888      3886      3889      3890      3888      3886      3889      3891
      3888      3886      3889      3892      3886      3889      3892      3893
      3886      3889      3892      3894      3886      3889      3892      3895
      3890      3889      3892      3893      3890      3889      3892      3894
      3890      3889      3892      3895      3891      3889      3892      3893
      3891      3889      3892      3894      3891      3889      3892      3895
      3889      3892      3895      3896      3889      3892      3895      3897
      3889      3892      3895      3898      3893      3892      3895      3896
      3893      3892      3895      3897      3893      3892      3895      3898
      3894      3892      3895      3896      3894      3892      3895      3897
      3894      3892      3895      3898      3892      3895      3898      3899
      3892      3895      3898      3900      3892      3895      3898      3901
      3896      3895      3898      3899      3896      3895      3898      3900
      3896      3895      3898      3901      3897      3895      3898      3899
      3897      3895      3898      3900      3897      3895      3898      3901
      3895      3898      3901      3902      3895      3898      3901      3903
      3895      3898      3901      3904      3899      3898      3901      3902
      3899      3898      3901      3903      3899      3898      3901      3904
      3900      3898      3901      3902      3900      3898      3901      3903
      3900      3898      3901      3904      3898      3901      3904      3907
      3898      3901      3904      3905      3898      3901      3904      3906
      3902      3901      3904      3907      3902      3901      3904      3905
      3902      3901      3904      3906      3903      3901      3904      3907
      3903      3901      3904      3905      3903      3901      3904      3906
      3908      3907      3904      3901      3909      3907      3904      3901
      3908      3907      3904      3905      3909      3907      3904      3905
      3908      3907      3904      3906      3909      3907      3904      3906
      3904      3907      3909      3910      3908      3907      3909      3910
      3907      3909      3910      3911      3907      3909      3910      3912
      3907      3909      3910      3913      3909      3910      3913      3914
      3909      3910      3913      3915      3909      3910      3913      3942
      3911      3910      3913      3914      3911      3910      3913      3915
      3911      3910      3913      3942      3912      3910      3913      3914
      3912      3910      3913      3915      3912      3910      3913      3942
      3910      3913      3915      3916      3910      3913      3915      3917
      3910      3913      3915      3918      3910      3913      3942      3943
      3914      3913      3915      3916      3914      3913      3915      3917
      3914      3913      3915      3918      3914      3913      3942      3943
      3916      3915      3913      3942      3917      3915      3913      3942
      3918      3915      3913      3942      3915      3913      3942      3943
      3913      3915      3918      3919      3916      3915      3918      3919
      3917      3915      3918      3919      3915      3918      3919      3920
      3915      3918      3919      3940      3915      3918      3919      3941
      3918      3919      3920      3921      3921      3920      3919      3940
      3921      3920      3919      3941      3919      3920      3921      3922
      3919      3920      3921      3923      3919      3920      3921      3924
      3920      3921      3924      3925      3920      3921      3924      3926
      3920      3921      3924      3927      3922      3921      3924      3925
      3922      3921      3924      3926      3922      3921      3924      3927
      3923      3921      3924      3925      3923      3921      3924      3926
      3923      3921      3924      3927      3921      3924      3927      3928
      3921      3924      3927      3932      3921      3924      3927      3936
      3925      3924      3927      3928      3925      3924      3927      3932
      3925      3924      3927      3936      3926      3924      3927      3928
      3926      3924      3927      3932      3926      3924      3927      3936
      3924      3927      3928      3929      3924      3927      3928      3930
      3924      3927      3928      3931      3924      3927      3932      3933
      3924      3927      3932      3934      3924      3927      3932      3935
      3924      3927      3936      3937      3924      3927      3936      3938
      3924      3927      3936      3939      3929      3928      3927      3932
      3930      3928      3927      3932      3931      3928      3927      3932
      3928      3927      3932      3933      3928      3927      3932      3934
      3928      3927      3932      3935      3929      3928      3927      3936
      3930      3928      3927      3936      3931      3928      3927      3936
      3928      3927      3936      3937      3928      3927      3936      3938
      3928      3927      3936      3939      3933      3932      3927      3936
      3934      3932      3927      3936      3935      3932      3927      3936
      3932      3927      3936      3937      3932      3927      3936      3938
      3932      3927      3936      3939      3913      3942      3943      3945
      3913      3942      3943      3944      3946      3945      3943      3942
      3947      3945      3943      3942      3948      3945      3943      3942
      3946      3945      3943      3944      3947      3945      3943      3944
      3948      3945      3943      3944      3943      3945      3948      3949
      3943      3945      3948      3950      3943      3945      3948      3951
      3946      3945      3948      3949      3946      3945      3948      3950
      3946      3945      3948      3951      3947      3945      3948      3949
      3947      3945      3948      3950      3947      3945      3948      3951
      3945      3948      3951      3952      3945      3948      3951      3953
      3945      3948      3951      3954      3949      3948      3951      3952
      3949      3948      3951      3953      3949      3948      3951      3954
      3950      3948      3951      3952      3950      3948      3951      3953
      3950      3948      3951      3954      3948      3951      3954      3955
      3948      3951      3954      3956      3948      3951      3954      3957
      3952      3951      3954      3955      3952      3951      3954      3956
      3952      3951      3954      3957      3953      3951      3954      3955
      3953      3951      3954      3956      3953      3951      3954      3957
      3951      3954      3957      3958      3951      3954      3957      3959
      3951      3954      3957      3960      3955      3954      3957      3958
      3955      3954      3957      3959      3955      3954      3957      3960
      3956      3954      3957      3958      3956      3954      3957      3959
      3956      3954      3957      3960      3954      3957      3960      3961
      3954      3957      3960      3962      3954      3957      3960      3963
      3958      3957      3960      3961      3958      3957      3960      3962
      3958      3957      3960      3963      3959      3957      3960      3961
      3959      3957      3960      3962      3959      3957      3960      3963
      3957      3960      3963      3964      3957      3960      3963      3965
      3957      3960      3963      3966      3961      3960      3963      3964
      3961      3960      3963      3965      3961      3960      3963      3966
      3962      3960      3963      3964      3962      3960      3963      3965
      3962      3960      3963      3966      3960      3963      3966      3967
      3960      3963      3966      3968      3964      3963      3966      3967
      3964      3963      3966      3968      3965      3963      3966      3967
      3965      3963      3966      3968      3963      3966      3968      3969
      3963      3966      3968      3970      3967      3966      3968      3969
      3967      3966      3968      3970      3966      3968      3970      3971
      3966      3968      3970      3972      3966      3968      3970      3973
      3969      3968      3970      3971      3969      3968      3970      3972
      3969      3968      3970      3973      3968      3970      3973      3974
      3968      3970      3973      3975      3968      3970      3973      3976
      3971      3970      3973      3974      3971      3970      3973      3975
      3971      3970      3973      3976      3972      3970      3973      3974
      3972      3970      3973      3975      3972      3970      3973      3976
      3970      3973      3976      3977      3970      3973      3976      3978
      3970      3973      3976      3979      3974      3973      3976      3977
      3974      3973      3976      3978      3974      3973      3976      3979
      3975      3973      3976      3977      3975      3973      3976      3978
      3975      3973      3976      3979      3973      3976      3979      3980
      3973      3976      3979      3981      3973      3976      3979      3982
      3977      3976      3979      3980      3977      3976      3979      3981
      3977      3976      3979      3982      3978      3976      3979      3980
      3978      3976      3979      3981      3978      3976      3979      3982
      3976      3979      3982      3983      3976      3979      3982      3984
      3976      3979      3982      3985      3980      3979      3982      3983
      3980      3979      3982      3984      3980      3979      3982      3985
      3981      3979      3982      3983      3981      3979      3982      3984
      3981      3979      3982      3985      3979      3982      3985      3986
      3979      3982      3985      3987      3979      3982      3985      3988
      3983      3982      3985      3986      3983      3982      3985      3987
      3983      3982      3985      3988      3984      3982      3985      3986
      3984      3982      3985      3987      3984      3982      3985      3988
      3982      3985      3988      3989      3982      3985      3988      3990
      3982      3985      3988      3991      3986      3985      3988      3989
      3986      3985      3988      3990      3986      3985      3988      3991
      3987      3985      3988      3989      3987      3985      3988      3990
      3987      3985      3988      3991      3985      3988      3991      3992
      3985      3988      3991      3993      3985      3988      3991      3994
      3989      3988      3991      3992      3989      3988      3991      3993
      3989      3988      3991      3994      3990      3988      3991      3992
      3990      3988      3991      3993      3990      3988      3991      3994
      3996      3995      3999      4000      3996      3995      3999      4001
      3996      3995      3999      4002      3997      3995      3999      4000
      3997      3995      3999      4001      3997      3995      3999      4002
      3998      3995      3999      4000      3998      3995      3999      4001
      3998      3995      3999      4002      3995      3999      4002      4003
      3995      3999      4002      4004      3995      3999      4002      4005
      4000      3999      4002      4003      4000      3999      4002      4004
      4000      3999      4002      4005      4001      3999      4002      4003
      4001      3999      4002      4004      4001      3999      4002      4005
      3999      4002      4005      4006      3999      4002      4005      4007
      3999      4002      4005      4008      4003      4002      4005      4006
      4003      4002      4005      4007      4003      4002      4005      4008
      4004      4002      4005      4006      4004      4002      4005      4007
      4004      4002      4005      4008      4002      4005      4008      4009
      4002      4005      4008      4010      4002      4005      4008      4011
      4006      4005      4008      4009      4006      4005      4008      4010
      4006      4005      4008      4011      4007      4005      4008      4009
      4007      4005      4008      4010      4007      4005      4008      4011
      4005      4008      4011      4012      4005      4008      4011      4013
      4005      4008      4011      4014      4009      4008      4011      4012
      4009      4008      4011      4013      4009      4008      4011      4014
      4010      4008      4011      4012      4010      4008      4011      4013
      4010      4008      4011      4014      4008      4011      4014      4015
      4008      4011      4014      4016      4008      4011      4014      4017
      4012      4011      4014      4015      4012      4011      4014      4016
      4012      4011      4014      4017      4013      4011      4014      4015
      4013      4011      4014      4016      4013      4011      4014      4017
      4011      4014      4017      4018      4011      4014      4017      4019
      4011      4014      4017      4020      4015      4014      4017      4018
      4015      4014      4017      4019      4015      4014      4017      4020
      4016      4014      4017      4018      4016      4014      4017      4019
      4016      4014      4017      4020      4014      4017      4020      4021
      4014      4017      4020      4022      4014      4017      4020      4023
      4018      4017      4020      4021      4018      4017      4020      4022
      4018      4017      4020      4023      4019      4017      4020      4021
      4019      4017      4020      4022      4019      4017      4020      4023
      4017      4020      4023      4024      4017      4020      4023      4025
      4017      4020      4023      4026      4021      4020      4023      4024
      4021      4020      4023      4025      4021      4020      4023      4026
      4022      4020      4023      4024      4022      4020      4023      4025
      4022      4020      4023      4026      4020      4023      4026      4027
      4020      4023      4026      4028      4020      4023      4026      4029
      4024      4023      4026      4027      4024      4023      4026      4028
      4024      4023      4026      4029      4025      4023      4026      4027
      4025      4023      4026      4028      4025      4023      4026      4029
      4023      4026      4029      4030      4023      4026      4029      4031
      4023      4026      4029      4032      4027      4026      4029      4030
      4027      4026      4029      4031      4027      4026      4029      4032
      4028      4026      4029      4030      4028      4026      4029      4031
      4028      4026      4029      4032      4026      4029      4032      4033
      4026      4029      4032      4034      4026      4029      4032      4035
      4030      4029      4032      4033      4030      4029      4032      4034
      4030      4029      4032      4035      4031      4029      4032      4033
      4031      4029      4032      4034      4031      4029      4032      4035
      4029      4032      4035      4036      4029      4032      4035      4037
      4029      4032      4035      4038      4033      4032      4035      4036
      4033      4032      4035      4037      4033      4032      4035      4038
      4034      4032      4035      4036      4034      4032      4035      4037
      4034      4032      4035      4038      4032      4035      4038      4041
      4032      4035      4038      4039      4032      4035      4038      4040
      4036      4035      4038      4041      4036      4035      4038      4039
      4036      4035      4038      4040      4037      4035      4038      4041
      4037      4035      4038      4039      4037      4035      4038      4040
      4042      4041      4038      4035      4043      4041      4038      4035
      4042      4041      4038      4039      4043      4041      4038      4039
      4042      4041      4038      4040      4043      4041      4038      4040
      4038      4041      4043      4044      4042      4041      4043      4044
      4041      4043      4044      4045      4041      4043      4044      4046
      4041      4043      4044      4047      4043      4044      4047      4048
      4043      4044      4047      4049      4043      4044      4047      4076
      4045      4044      4047      4048      4045      4044      4047      4049
      4045      4044      4047      4076      4046      4044      4047      4048
      4046      4044      4047      4049      4046      4044      4047      4076
      4044      4047      4049      4050      4044      4047      4049      4051
      4044      4047      4049      4052      4044      4047      4076      4077
      4048      4047      4049      4050      4048      4047      4049      4051
      4048      4047      4049      4052      4048      4047      4076      4077
      4050      4049      4047      4076      4051      4049      4047      4076
      4052      4049      4047      4076      4049      4047      4076      4077
      4047      4049      4052      4053      4050      4049      4052      4053
      4051      4049      4052      4053      4049      4052      4053      4054
      4049      4052      4053      4074      4049      4052      4053      4075
      4052      4053      4054      4055      4055      4054      4053      4074
      4055      4054      4053      4075      4053      4054      4055      4056
      4053      4054      4055      4057      4053      4054      4055      4058
      4054      4055      4058      4059      4054      4055      4058      4060
      4054      4055      4058      4061      4056      4055      4058      4059
      4056      4055      4058      4060      4056      4055      4058      4061
      4057      4055      4058      4059      4057      4055      4058      4060
      4057      4055      4058      4061      4055      4058      4061      4062
      4055      4058      4061      4066      4055      4058      4061      4070
      4059      4058      4061      4062      4059      4058      4061      4066
      4059      4058      4061      4070      4060      4058      4061      4062
      4060      4058      4061      4066      4060      4058      4061      4070
      4058      4061      4062      4063      4058      4061      4062      4064
      4058      4061      4062      4065      4058      4061      4066      4067
      4058      4061      4066      4068      4058      4061      4066      4069
      4058      4061      4070      4071      4058      4061      4070      4072
      4058      4061      4070      4073      4063      4062      4061      4066
      4064      4062      4061      4066      4065      4062      4061      4066
      4062      4061      4066      4067      4062      4061      4066      4068
      4062      4061      4066      4069      4063      4062      4061      4070
      4064      4062      4061      4070      4065      4062      4061      4070
      4062      4061      4070      4071      4062      4061      4070      4072
      4062      4061      4070      4073      4067      4066      4061      4070
      4068      4066      4061      4070      4069      4066      4061      4070
      4066      4061      4070      4071      4066      4061      4070      4072
      4066      4061      4070      4073      4047      4076      4077      4079
      4047      4076      4077      4078      4080      4079      4077      4076
      4081      4079      4077      4076      4082      4079      4077      4076
      4080      4079      4077      4078      4081      4079      4077      4078
      4082      4079      4077      4078      4077      4079      4082      4083
      4077      4079      4082      4084      4077      4079      4082      4085
      4080      4079      4082      4083      4080      4079      4082      4084
      4080      4079      4082      4085      4081      4079      4082      4083
      4081      4079      4082      4084      4081      4079      4082      4085
      4079      4082      4085      4086      4079      4082      4085      4087
      4079      4082      4085      4088      4083      4082      4085      4086
      4083      4082      4085      4087      4083      4082      4085      4088
      4084      4082      4085      4086      4084      4082      4085      4087
      4084      4082      4085      4088      4082      4085      4088      4089
      4082      4085      4088      4090      4082      4085      4088      4091
      4086      4085      4088      4089      4086      4085      4088      4090
      4086      4085      4088      4091      4087      4085      4088      4089
      4087      4085      4088      4090      4087      4085      4088      4091
      4085      4088      4091      4092      4085      4088      4091      4093
      4085      4088      4091      4094      4089      4088      4091      4092
      4089      4088      4091      4093      4089      4088      4091      4094
      4090      4088      4091      4092      4090      4088      4091      4093
      4090      4088      4091      4094      4088      4091      4094      4095
      4088      4091      4094      4096      4088      4091      4094      4097
      4092      4091      4094      4095      4092      4091      4094      4096
      4092      4091      4094      4097      4093      4091      4094      4095
      4093      4091      4094      4096      4093      4091      4094      4097
      4091      4094      4097      4098      4091      4094      4097      4099
      4091      4094      4097      4100      4095      4094      4097      4098
      4095      4094      4097      4099      4095      4094      4097      4100
      4096      4094      4097      4098      4096      4094      4097      4099
      4096      4094      4097      4100      4094      4097      4100      4101
      4094      4097      4100      4102      4098      4097      4100      4101
      4098      4097      4100      4102      4099      4097      4100      4101
      4099      4097      4100      4102      4097      4100      4102      4103
      4097      4100      4102      4104      4101      4100      4102      4103
      4101      4100      4102      4104      4100      4102      4104      4105
      4100      4102      4104      4106      4100      4102      4104      4107
      4103      4102      4104      4105      4103      4102      4104      4106
      4103      4102      4104      4107      4102      4104      4107      4108
      4102      4104      4107      4109      4102      4104      4107      4110
      4105      4104      4107      4108      4105      4104      4107      4109
      4105      4104      4107      4110      4106      4104      4107      4108
      4106      4104      4107      4109      4106      4104      4107      4110
      4104      4107      4110      4111      4104      4107      4110      4112
      4104      4107      4110      4113      4108      4107      4110      4111
      4108      4107      4110      4112      4108      4107      4110      4113
      4109      4107      4110      4111      4109      4107      4110      4112
      4109      4107      4110      4113      4107      4110      4113      4114
      4107      4110      4113      4115      4107      4110      4113      4116
      4111      4110      4113      4114      4111      4110      4113      4115
      4111      4110      4113      4116      4112      4110      4113      4114
      4112      4110      4113      4115      4112      4110      4113      4116
      4110      4113      4116      4117      4110      4113      4116      4118
      4110      4113      4116      4119      4114      4113      4116      4117
      4114      4113      4116      4118      4114      4113      4116      4119
      4115      4113      4116      4117      4115      4113      4116      4118
      4115      4113      4116      4119      4113      4116      4119      4120
      4113      4116      4119      4121      4113      4116      4119      4122
      4117      4116      4119      4120      4117      4116      4119      4121
      4117      4116      4119      4122      4118      4116      4119      4120
      4118      4116      4119      4121      4118      4116      4119      4122
      4116      4119      4122      4123      4116      4119      4122      4124
      4116      4119      4122      4125      4120      4119      4122      4123
      4120      4119      4122      4124      4120      4119      4122      4125
      4121      4119      4122      4123      4121      4119      4122      4124
      4121      4119      4122      4125      4119      4122      4125      4126
      4119      4122      4125      4127      4119      4122      4125      4128
      4123      4122      4125      4126      4123      4122      4125      4127
      4123      4122      4125      4128      4124      4122      4125      4126
      4124      4122      4125      4127      4124      4122      4125      4128
      4130      4129      4133      4134      4130      4129      4133      4135
      4130      4129      4133      4136      4131      4129      4133      4134
      4131      4129      4133      4135      4131      4129      4133      4136
      4132      4129      4133      4134      4132      4129      4133      4135
      4132      4129      4133      4136      4129      4133      4136      4137
      4129      4133      4136      4138      4129      4133      4136      4139
      4134      4133      4136      4137      4134      4133      4136      4138
      4134      4133      4136      4139      4135      4133      4136      4137
      4135      4133      4136      4138      4135      4133      4136      4139
      4133      4136      4139      4140      4133      4136      4139      4141
      4133      4136      4139      4142      4137      4136      4139      4140
      4137      4136      4139      4141      4137      4136      4139      4142
      4138      4136      4139      4140      4138      4136      4139      4141
      4138      4136      4139      4142      4136      4139      4142      4143
      4136      4139      4142      4144      4136      4139      4142      4145
      4140      4139      4142      4143      4140      4139      4142      4144
      4140      4139      4142      4145      4141      4139      4142      4143
      4141      4139      4142      4144      4141      4139      4142      4145
      4139      4142      4145      4146      4139      4142      4145      4147
      4139      4142      4145      4148      4143      4142      4145      4146
      4143      4142      4145      4147      4143      4142      4145      4148
      4144      4142      4145      4146      4144      4142      4145      4147
      4144      4142      4145      4148      4142      4145      4148      4149
      4142      4145      4148      4150      4142      4145      4148      4151
      4146      4145      4148      4149      4146      4145      4148      4150
      4146      4145      4148      4151      4147      4145      4148      4149
      4147      4145      4148      4150      4147      4145      4148      4151
      4145      4148      4151      4152      4145      4148      4151      4153
      4145      4148      4151      4154      4149      4148      4151      4152
      4149      4148      4151      4153      4149      4148      4151      4154
      4150      4148      4151      4152      4150      4148      4151      4153
      4150      4148      4151      4154      4148      4151      4154      4155
      4148      4151      4154      4156      4148      4151      4154      4157
      4152      4151      4154      4155      4152      4151      4154      4156
      4152      4151      4154      4157      4153      4151      4154      4155
      4153      4151      4154      4156      4153      4151      4154      4157
      4151      4154      4157      4158      4151      4154      4157      4159
      4151      4154      4157      4160      4155      4154      4157      4158
      4155      4154      4157      4159      4155      4154      4157      4160
      4156      4154      4157      4158      4156      4154      4157      4159
      4156      4154      4157      4160      4154      4157      4160      4161
      4154      4157      4160      4162      4154      4157      4160      4163
      4158      4157      4160      4161      4158      4157      4160      4162
      4158      4157      4160      4163      4159      4157      4160      4161
      4159      4157      4160      4162      4159      4157      4160      4163
      4157      4160      4163      4164      4157      4160      4163      4165
      4157      4160      4163      4166      4161      4160      4163      4164
      4161      4160      4163      4165      4161      4160      4163      4166
      4162      4160      4163      4164      4162      4160      4163      4165
      4162      4160      4163      4166      4160      4163      4166      4167
      4160      4163      4166      4168      4160      4163      4166      4169
      4164      4163      4166      4167      4164      4163      4166      4168
      4164      4163      4166      4169      4165      4163      4166      4167
      4165      4163      4166      4168      4165      4163      4166      4169
      4163      4166      4169      4170      4163      4166      4169      4171
      4163      4166      4169      4172      4167      4166      4169      4170
      4167      4166      4169      4171      4167      4166      4169      4172
      4168      4166      4169      4170      4168      4166      4169      4171
      4168      4166      4169      4172      4166      4169      4172      4175
      4166      4169      4172      4173      4166      4169      4172      4174
      4170      4169      4172      4175      4170      4169      4172      4173
      4170      4169      4172      4174      4171      4169      4172      4175
      4171      4169      4172      4173      4171      4169      4172      4174
      4176      4175      4172      4169      4177      4175      4172      4169
      4176      4175      4172      4173      4177      4175      4172      4173
      4176      4175      4172      4174      4177      4175      4172      4174
      4172      4175      4177      4178      4176      4175      4177      4178
      4175      4177      4178      4179      4175      4177      4178      4180
      4175      4177      4178      4181      4177      4178      4181      4182
      4177      4178      4181      4183      4177      4178      4181      4210
      4179      4178      4181      4182      4179      4178      4181      4183
      4179      4178      4181      4210      4180      4178      4181      4182
      4180      4178      4181      4183      4180      4178      4181      4210
      4178      4181      4183      4184      4178      4181      4183      4185
      4178      4181      4183      4186      4178      4181      4210      4211
      4182      4181      4183      4184      4182      4181      4183      4185
      4182      4181      4183      4186      4182      4181      4210      4211
      4184      4183      4181      4210      4185      4183      4181      4210
      4186      4183      4181      4210      4183      4181      4210      4211
      4181      4183      4186      4187      4184      4183      4186      4187
      4185      4183      4186      4187      4183      4186      4187      4188
      4183      4186      4187      4208      4183      4186      4187      4209
      4186      4187      4188      4189      4189      4188      4187      4208
      4189      4188      4187      4209      4187      4188      4189      4190
      4187      4188      4189      4191      4187      4188      4189      4192
      4188      4189      4192      4193      4188      4189      4192      4194
      4188      4189      4192      4195      4190      4189      4192      4193
      4190      4189      4192      4194      4190      4189      4192      4195
      4191      4189      4192      4193      4191      4189      4192      4194
      4191      4189      4192      4195      4189      4192      4195      4196
      4189      4192      4195      4200      4189      4192      4195      4204
      4193      4192      4195      4196      4193      4192      4195      4200
      4193      4192      4195      4204      4194      4192      4195      4196
      4194      4192      4195      4200      4194      4192      4195      4204
      4192      4195      4196      4197      4192      4195      4196      4198
      4192      4195      4196      4199      4192      4195      4200      4201
      4192      4195      4200      4202      4192      4195      4200      4203
      4192      4195      4204      4205      4192      4195      4204      4206
      4192      4195      4204      4207      4197      4196      4195      4200
      4198      4196      4195      4200      4199      4196      4195      4200
      4196      4195      4200      4201      4196      4195      4200      4202
      4196      4195      4200      4203      4197      4196      4195      4204
      4198      4196      4195      4204      4199      4196      4195      4204
      4196      4195      4204      4205      4196      4195      4204      4206
      4196      4195      4204      4207      4201      4200      4195      4204
      4202      4200      4195      4204      4203      4200      4195      4204
      4200      4195      4204      4205      4200      4195      4204      4206
      4200      4195      4204      4207      4181      4210      4211      4213
      4181      4210      4211      4212      4214      4213      4211      4210
      4215      4213      4211      4210      4216      4213      4211      4210
      4214      4213      4211      4212      4215      4213      4211      4212
      4216      4213      4211      4212      4211      4213      4216      4217
      4211      4213      4216      4218      4211      4213      4216      4219
      4214      4213      4216      4217      4214      4213      4216      4218
      4214      4213      4216      4219      4215      4213      4216      4217
      4215      4213      4216      4218      4215      4213      4216      4219
      4213      4216      4219      4220      4213      4216      4219      4221
      4213      4216      4219      4222      4217      4216      4219      4220
      4217      4216      4219      4221      4217      4216      4219      4222
      4218      4216      4219      4220      4218      4216      4219      4221
      4218      4216      4219      4222      4216      4219      4222      4223
      4216      4219      4222      4224      4216      4219      4222      4225
      4220      4219      4222      4223      4220      4219      4222      4224
      4220      4219      4222      4225      4221      4219      4222      4223
      4221      4219      4222      4224      4221      4219      4222      4225
      4219      4222      4225      4226      4219      4222      4225      4227
      4219      4222      4225      4228      4223      4222      4225      4226
      4223      4222      4225      4227      4223      4222      4225      4228
      4224      4222      4225      4226      4224      4222      4225      4227
      4224      4222      4225      4228      4222      4225      4228      4229
      4222      4225      4228      4230      4222      4225      4228      4231
      4226      4225      4228      4229      4226      4225      4228      4230
      4226      4225      4228      4231      4227      4225      4228      4229
      4227      4225      4228      4230      4227      4225      4228      4231
      4225      4228      4231      4232      4225      4228      4231      4233
      4225      4228      4231      4234      4229      4228      4231      4232
      4229      4228      4231      4233      4229      4228      4231      4234
      4230      4228      4231      4232      4230      4228      4231      4233
      4230      4228      4231      4234      4228      4231      4234      4235
      4228      4231      4234      4236      4232      4231      4234      4235
      4232      4231      4234      4236      4233      4231      4234      4235
      4233      4231      4234      4236      4231      4234      4236      4237
      4231      4234      4236      4238      4235      4234      4236      4237
      4235      4234      4236      4238      4234      4236      4238      4239
      4234      4236      4238      4240      4234      4236      4238      4241
      4237      4236      4238      4239      4237      4236      4238      4240
      4237      4236      4238      4241      4236      4238      4241      4242
      4236      4238      4241      4243      4236      4238      4241      4244
      4239      4238      4241      4242      4239      4238      4241      4243
      4239      4238      4241      4244      4240      4238      4241      4242
      4240      4238      4241      4243      4240      4238      4241      4244
      4238      4241      4244      4245      4238      4241      4244      4246
      4238      4241      4244      4247      4242      4241      4244      4245
      4242      4241      4244      4246      4242      4241      4244      4247
      4243      4241      4244      4245      4243      4241      4244      4246
      4243      4241      4244      4247      4241      4244      4247      4248
      4241      4244      4247      4249      4241      4244      4247      4250
      4245      4244      4247      4248      4245      4244      4247      4249
      4245      4244      4247      4250      4246      4244      4247      4248
      4246      4244      4247      4249      4246      4244      4247      4250
      4244      4247      4250      4251      4244      4247      4250      4252
      4244      4247      4250      4253      4248      4247      4250      4251
      4248      4247      4250      4252      4248      4247      4250      4253
      4249      4247      4250      4251      4249      4247      4250      4252
      4249      4247      4250      4253      4247      4250      4253      4254
      4247      4250      4253      4255      4247      4250      4253      4256
      4251      4250      4253      4254      4251      4250      4253      4255
      4251      4250      4253      4256      4252      4250      4253      4254
      4252      4250      4253      4255      4252      4250      4253      4256
      4250      4253      4256      4257      4250      4253      4256      4258
      4250      4253      4256      4259      4254      4253      4256      4257
      4254      4253      4256      4258      4254      4253      4256      4259
      4255      4253      4256      4257      4255      4253      4256      4258
      4255      4253      4256      4259      4253      4256      4259      4260
      4253      4256      4259      4261      4253      4256      4259      4262
      4257      4256      4259      4260      4257      4256      4259      4261
      4257      4256      4259      4262      4258      4256      4259      4260
      4258      4256      4259      4261      4258      4256      4259      4262
      4264      4263      4267      4268      4264      4263      4267      4269
      4264      4263      4267      4270      4265      4263      4267      4268
      4265      4263      4267      4269      4265      4263      4267      4270
      4266      4263      4267      4268      4266      4263      4267      4269
      4266      4263      4267      4270      4263      4267      4270      4271
      4263      4267      4270      4272      4263      4267      4270      4273
      4268      4267      4270      4271      4268      4267      4270      4272
      4268      4267      4270      4273      4269      4267      4270      4271
      4269      4267      4270      4272      4269      4267      4270      4273
      4267      4270      4273      4274      4267      4270      4273      4275
      4267      4270      4273      4276      4271      4270      4273      4274
      4271      4270      4273      4275      4271      4270      4273      4276
      4272      4270      4273      4274      4272      4270      4273      4275
      4272      4270      4273      4276      4270      4273      4276      4277
      4270      4273      4276      4278      4270      4273      4276      4279
      4274      4273      4276      4277      4274      4273      4276      4278
      4274      4273      4276      4279      4275      4273      4276      4277
      4275      4273      4276      4278      4275      4273      4276      4279
      4273      4276      4279      4280      4273      4276      4279      4281
      4273      4276      4279      4282      4277      4276      4279      4280
      4277      4276      4279      4281      4277      4276      4279      4282
      4278      4276      4279      4280      4278      4276      4279      4281
      4278      4276      4279      4282      4276      4279      4282      4283
      4276      4279      4282      4284      4276      4279      4282      4285
      4280      4279      4282      4283      4280      4279      4282      4284
      4280      4279      4282      4285      4281      4279      4282      4283
      4281      4279      4282      4284      4281      4279      4282      4285
      4279      4282      4285      4286      4279      4282      4285      4287
      4279      4282      4285      4288      4283      4282      4285      4286
      4283      4282      4285      4287      4283      4282      4285      4288
      4284      4282      4285      4286      4284      4282      4285      4287
      4284      4282      4285      4288      4282      4285      4288      4289
      4282      4285      4288      4290      4282      4285      4288      4291
      4286      4285      4288      4289      4286      4285      4288      4290
      4286      4285      4288      4291      4287      4285      4288      4289
      4287      4285      4288      4290      4287      4285      4288      4291
      4285      4288      4291      4292      4285      4288      4291      4293
      4285      4288      4291      4294      4289      4288      4291      4292
      4289      4288      4291      4293      4289      4288      4291      4294
      4290      4288      4291      4292      4290      4288      4291      4293
      4290      4288      4291      4294      4288      4291      4294      4295
      4288      4291      4294      4296      4288      4291      4294      4297
      4292      4291      4294      4295      4292      4291      4294      4296
      4292      4291      4294      4297      4293      4291      4294      4295
      4293      4291      4294      4296      4293      4291      4294      4297
      4291      4294      4297      4298      4291      4294      4297      4299
      4291      4294      4297      4300      4295      4294      4297      4298
      4295      4294      4297      4299      4295      4294      4297      4300
      4296      4294      4297      4298      4296      4294      4297      4299
      4296      4294      4297      4300      4294      4297      4300      4301
      4294      4297      4300      4302      4294      4297      4300      4303
      4298      4297      4300      4301      4298      4297      4300      4302
      4298      4297      4300      4303      4299      4297      4300      4301
      4299      4297      4300      4302      4299      4297      4300      4303
      4297      4300      4303      4304      4297      4300      4303      4305
      4297      4300      4303      4306      4301      4300      4303      4304
      4301      4300      4303      4305      4301      4300      4303      4306
      4302      4300      4303      4304      4302      4300      4303      4305
      4302      4300      4303      4306      4300      4303      4306      4309
      4300      4303      4306      4307      4300      4303      4306      4308
      4304      4303      4306      4309      4304      4303      4306      4307
      4304      4303      4306      4308      4305      4303      4306      4309
      4305      4303      4306      4307      4305      4303      4306      4308
      4310      4309      4306      4303      4311      4309      4306      4303
      4310      4309      4306      4307      4311      4309      4306      4307
      4310      4309      4306      4308      4311      4309      4306      4308
      4306      4309      4311      4312      4310      4309      4311      4312
      4309      4311      4312      4313      4309      4311      4312      4314
      4309      4311      4312      4315      4311      4312      4315      4316
      4311      4312      4315      4317      4311      4312      4315      4344
      4313      4312      4315      4316      4313      4312      4315      4317
      4313      4312      4315      4344      4314      4312      4315      4316
      4314      4312      4315      4317      4314      4312      4315      4344
      4312      4315      4317      4318      4312      4315      4317      4319
      4312      4315      4317      4320      4312      4315      4344      4345
      4316      4315      4317      4318      4316      4315      4317      4319
      4316      4315      4317      4320      4316      4315      4344      4345
      4318      4317      4315      4344      4319      4317      4315      4344
      4320      4317      4315      4344      4317      4315      4344      4345
      4315      4317      4320      4321      4318      4317      4320      4321
      4319      4317      4320      4321      4317      4320      4321      4322
      4317      4320      4321      4342      4317      4320      4321      4343
      4320      4321      4322      4323      4323      4322      4321      4342
      4323      4322      4321      4343      4321      4322      4323      4324
      4321      4322      4323      4325      4321      4322      4323      4326
      4322      4323      4326      4327      4322      4323      4326      4328
      4322      4323      4326      4329      4324      4323      4326      4327
      4324      4323      4326      4328      4324      4323      4326      4329
      4325      4323      4326      4327      4325      4323      4326      4328
      4325      4323      4326      4329      4323      4326      4329      4330
      4323      4326      4329      4334      4323      4326      4329      4338
      4327      4326      4329      4330      4327      4326      4329      4334
      4327      4326      4329      4338      4328      4326      4329      4330
      4328      4326      4329      4334      4328      4326      4329      4338
      4326      4329      4330      4331      4326      4329      4330      4332
      4326      4329      4330      4333      4326      4329      4334      4335
      4326      4329      4334      4336      4326      4329      4334      4337
      4326      4329      4338      4339      4326      4329      4338      4340
      4326      4329      4338      4341      4331      4330      4329      4334
      4332      4330      4329      4334      4333      4330      4329      4334
      4330      4329      4334      4335      4330      4329      4334      4336
      4330      4329      4334      4337      4331      4330      4329      4338
      4332      4330      4329      4338      4333      4330      4329      4338
      4330      4329      4338      4339      4330      4329      4338      4340
      4330      4329      4338      4341      4335      4334      4329      4338
      4336      4334      4329      4338      4337      4334      4329      4338
      4334      4329      4338      4339      4334      4329      4338      4340
      4334      4329      4338      4341      4315      4344      4345      4347
      4315      4344      4345      4346      4348      4347      4345      4344
      4349      4347      4345      4344      4350      4347      4345      4344
      4348      4347      4345      4346      4349      4347      4345      4346
      4350      4347      4345      4346      4345      4347      4350      4351
      4345      4347      4350      4352      4345      4347      4350      4353
      4348      4347      4350      4351      4348      4347      4350      4352
      4348      4347      4350      4353      4349      4347      4350      4351
      4349      4347      4350      4352      4349      4347      4350      4353
      4347      4350      4353      4354      4347      4350      4353      4355
      4347      4350      4353      4356      4351      4350      4353      4354
      4351      4350      4353      4355      4351      4350      4353      4356
      4352      4350      4353      4354      4352      4350      4353      4355
      4352      4350      4353      4356      4350      4353      4356      4357
      4350      4353      4356      4358      4350      4353      4356      4359
      4354      4353      4356      4357      4354      4353      4356      4358
      4354      4353      4356      4359      4355      4353      4356      4357
      4355      4353      4356      4358      4355      4353      4356      4359
      4353      4356      4359      4360      4353      4356      4359      4361
      4353      4356      4359      4362      4357      4356      4359      4360
      4357      4356      4359      4361      4357      4356      4359      4362
      4358      4356      4359      4360      4358      4356      4359      4361
      4358      4356      4359      4362      4356      4359      4362      4363
      4356      4359      4362      4364      4356      4359      4362      4365
      4360      4359      4362      4363      4360      4359      4362      4364
      4360      4359      4362      4365      4361      4359      4362      4363
      4361      4359      4362      4364      4361      4359      4362      4365
      4359      4362      4365      4366      4359      4362      4365      4367
      4359      4362      4365      4368      4363      4362      4365      4366
      4363      4362      4365      4367      4363      4362      4365      4368
      4364      4362      4365      4366      4364      4362      4365      4367
      4364      4362      4365      4368      4362      4365      4368      4369
      4362      4365      4368      4370      4366      4365      4368      4369
      4366      4365      4368      4370      4367      4365      4368      4369
      4367      4365      4368      4370      4365      4368      4370      4371
      4365      4368      4370      4372      4369      4368      4370      4371
      4369      4368      4370      4372      4368      4370      4372      4373
      4368      4370      4372      4374      4368      4370      4372      4375
      4371      4370      4372      4373      4371      4370      4372      4374
      4371      4370      4372      4375      4370      4372      4375      4376
      4370      4372      4375      4377      4370      4372      4375      4378
      4373      4372      4375      4376      4373      4372      4375      4377
      4373      4372      4375      4378      4374      4372      4375      4376
      4374      4372      4375      4377      4374      4372      4375      4378
      4372      4375      4378      4379      4372      4375      4378      4380
      4372      4375      4378      4381      4376      4375      4378      4379
      4376      4375      4378      4380      4376      4375      4378      4381
      4377      4375      4378      4379      4377      4375      4378      4380
      4377      4375      4378      4381      4375      4378      4381      4382
      4375      4378      4381      4383      4375      4378      4381      4384
      4379      4378      4381      4382      4379      4378      4381      4383
      4379      4378      4381      4384      4380      4378      4381      4382
      4380      4378      4381      4383      4380      4378      4381      4384
      4378      4381      4384      4385      4378      4381      4384      4386
      4378      4381      4384      4387      4382      4381      4384      4385
      4382      4381      4384      4386      4382      4381      4384      4387
      4383      4381      4384      4385      4383      4381      4384      4386
      4383      4381      4384      4387      4381      4384      4387      4388
      4381      4384      4387      4389      4381      4384      4387      4390
      4385      4384      4387      4388      4385      4384      4387      4389
      4385      4384      4387      4390      4386      4384      4387      4388
      4386      4384      4387      4389      4386      4384      4387      4390
      4384      4387      4390      4391      4384      4387      4390      4392
      4384      4387      4390      4393      4388      4387      4390      4391
      4388      4387      4390      4392      4388      4387      4390      4393
      4389      4387      4390      4391      4389      4387      4390      4392
      4389      4387      4390      4393      4387      4390      4393      4394
      4387      4390      4393      4395      4387      4390      4393      4396
      4391      4390      4393      4394      4391      4390      4393      4395
      4391      4390      4393      4396      4392      4390      4393      4394
      4392      4390      4393      4395      4392      4390      4393      4396
      4398      4397      4401      4402      4398      4397      4401      4403
      4398      4397      4401      4404      4399      4397      4401      4402
      4399      4397      4401      4403      4399      4397      4401      4404
      4400      4397      4401      4402      4400      4397      4401      4403
      4400      4397      4401      4404      4397      4401      4404      4405
      4397      4401      4404      4406      4397      4401      4404      4407
      4402      4401      4404      4405      4402      4401      4404      4406
      4402      4401      4404      4407      4403      4401      4404      4405
      4403      4401      4404      4406      4403      4401      4404      4407
      4401      4404      4407      4408      4401      4404      4407      4409
      4401      4404      4407      4410      4405      4404      4407      4408
      4405      4404      4407      4409      4405      4404      4407      4410
      4406      4404      4407      4408      4406      4404      4407      4409
      4406      4404      4407      4410      4404      4407      4410      4411
      4404      4407      4410      4412      4404      4407      4410      4413
      4408      4407      4410      4411      4408      4407      4410      4412
      4408      4407      4410      4413      4409      4407      4410      4411
      4409      4407      4410      4412      4409      4407      4410      4413
      4407      4410      4413      4414      4407      4410      4413      4415
      4407      4410      4413      4416      4411      4410      4413      4414
      4411      4410      4413      4415      4411      4410      4413      4416
      4412      4410      4413      4414      4412      4410      4413      4415
      4412      4410      4413      4416      4410      4413      4416      4417
      4410      4413      4416      4418      4410      4413      4416      4419
      4414      4413      4416      4417      4414      4413      4416      4418
      4414      4413      4416      4419      4415      4413      4416      4417
      4415      4413      4416      4418      4415      4413      4416      4419
      4413      4416      4419      4420      4413      4416      4419      4421
      4413      4416      4419      4422      4417      4416      4419      4420
      4417      4416      4419      4421      4417      4416      4419      4422
      4418      4416      4419      4420      4418      4416      4419      4421
      4418      4416      4419      4422      4416      4419      4422      4423
      4416      4419      4422      4424      4416      4419      4422      4425
      4420      4419      4422      4423      4420      4419      4422      4424
      4420      4419      4422      4425      4421      4419      4422      4423
      4421      4419      4422      4424      4421      4419      4422      4425
      4419      4422      4425      4426      4419      4422      4425      4427
      4419      4422      4425      4428      4423      4422      4425      4426
      4423      4422      4425      4427      4423      4422      4425      4428
      4424      4422      4425      4426      4424      4422      4425      4427
      4424      4422      4425      4428      4422      4425      4428      4429
      4422      4425      4428      4430      4422      4425      4428      4431
      4426      4425      4428      4429      4426      4425      4428      4430
      4426      4425      4428      4431      4427      4425      4428      4429
      4427      4425      4428      4430      4427      4425      4428      4431
      4425      4428      4431      4432      4425      4428      4431      4433
      4425      4428      4431      4434      4429      4428      4431      4432
      4429      4428      4431      4433      4429      4428      4431      4434
      4430      4428      4431      4432      4430      4428      4431      4433
      4430      4428      4431      4434      4428      4431      4434      4435
      4428      4431      4434      4436      4428      4431      4434      4437
      4432      4431      4434      4435      4432      4431      4434      4436
      4432      4431      4434      4437      4433      4431      4434      4435
      4433      4431      4434      4436      4433      4431      4434      4437
      4431      4434      4437      4438      4431      4434      4437      4439
      4431      4434      4437      4440      4435      4434      4437      4438
      4435      4434      4437      4439      4435      4434      4437      4440
      4436      4434      4437      4438      4436      4434      4437      4439
      4436      4434      4437      4440      4434      4437      4440      4443
      4434      4437      4440      4441      4434      4437      4440      4442
      4438      4437      4440      4443      4438      4437      4440      4441
      4438      4437      4440      4442      4439      4437      4440      4443
      4439      4437      4440      4441      4439      4437      4440      4442
      4444      4443      4440      4437      4445      4443      4440      4437
      4444      4443      4440      4441      4445      4443      4440      4441
      4444      4443      4440      4442      4445      4443      4440      4442
      4440      4443      4445      4446      4444      4443      4445      4446
      4443      4445      4446      4447      4443      4445      4446      4448
      4443      4445      4446      4449      4445      4446      4449      4450
      4445      4446      4449      4451      4445      4446      4449      4478
      4447      4446      4449      4450      4447      4446      4449      4451
      4447      4446      4449      4478      4448      4446      4449      4450
      4448      4446      4449      4451      4448      4446      4449      4478
      4446      4449      4451      4452      4446      4449      4451      4453
      4446      4449      4451      4454      4446      4449      4478      4479
      4450      4449      4451      4452      4450      4449      4451      4453
      4450      4449      4451      4454      4450      4449      4478      4479
      4452      4451      4449      4478      4453      4451      4449      4478
      4454      4451      4449      4478      4451      4449      4478      4479
      4449      4451      4454      4455      4452      4451      4454      4455
      4453      4451      4454      4455      4451      4454      4455      4456
      4451      4454      4455      4476      4451      4454      4455      4477
      4454      4455      4456      4457      4457      4456      4455      4476
      4457      4456      4455      4477      4455      4456      4457      4458
      4455      4456      4457      4459      4455      4456      4457      4460
      4456      4457      4460      4461      4456      4457      4460      4462
      4456      4457      4460      4463      4458      4457      4460      4461
      4458      4457      4460      4462      4458      4457      4460      4463
      4459      4457      4460      4461      4459      4457      4460      4462
      4459      4457      4460      4463      4457      4460      4463      4464
      4457      4460      4463      4468      4457      4460      4463      4472
      4461      4460      4463      4464      4461      4460      4463      4468
      4461      4460      4463      4472      4462      4460      4463      4464
      4462      4460      4463      4468      4462      4460      4463      4472
      4460      4463      4464      4465      4460      4463      4464      4466
      4460      4463      4464      4467      4460      4463      4468      4469
      4460      4463      4468      4470      4460      4463      4468      4471
      4460      4463      4472      4473      4460      4463      4472      4474
      4460      4463      4472      4475      4465      4464      4463      4468
      4466      4464      4463      4468      4467      4464      4463      4468
      4464      4463      4468      4469      4464      4463      4468      4470
      4464      4463      4468      4471      4465      4464      4463      4472
      4466      4464      4463      4472      4467      4464      4463      4472
      4464      4463      4472      4473      4464      4463      4472      4474
      4464      4463      4472      4475      4469      4468      4463      4472
      4470      4468      4463      4472      4471      4468      4463      4472
      4468      4463      4472      4473      4468      4463      4472      4474
      4468      4463      4472      4475      4449      4478      4479      4481
      4449      4478      4479      4480      4482      4481      4479      4478
      4483      4481      4479      4478      4484      4481      4479      4478
      4482      4481      4479      4480      4483      4481      4479      4480
      4484      4481      4479      4480      4479      4481      4484      4485
      4479      4481      4484      4486      4479      4481      4484      4487
      4482      4481      4484      4485      4482      4481      4484      4486
      4482      4481      4484      4487      4483      4481      4484      4485
      4483      4481      4484      4486      4483      4481      4484      4487
      4481      4484      4487      4488      4481      4484      4487      4489
      4481      4484      4487      4490      4485      4484      4487      4488
      4485      4484      4487      4489      4485      4484      4487      4490
      4486      4484      4487      4488      4486      4484      4487      4489
      4486      4484      4487      4490      4484      4487      4490      4491
      4484      4487      4490      4492      4484      4487      4490      4493
      4488      4487      4490      4491      4488      4487      4490      4492
      4488      4487      4490      4493      4489      4487      4490      4491
      4489      4487      4490      4492      4489      4487      4490      4493
      4487      4490      4493      4494      4487      4490      4493      4495
      4487      4490      4493      4496      4491      4490      4493      4494
      4491      4490      4493      4495      4491      4490      4493      4496
      4492      4490      4493      4494      4492      4490      4493      4495
      4492      4490      4493      4496      4490      4493      4496      4497
      4490      4493      4496      4498      4490      4493      4496      4499
      4494      4493      4496      4497      4494      4493      4496      4498
      4494      4493      4496      4499      4495      4493      4496      4497
      4495      4493      4496      4498      4495      4493      4496      4499
      4493      4496      4499      4500      4493      4496      4499      4501
      4493      4496      4499      4502      4497      4496      4499      4500
      4497      4496      4499      4501      4497      4496      4499      4502
      4498      4496      4499      4500      4498      4496      4499      4501
      4498      4496      4499      4502      4496      4499      4502      4503
      4496      4499      4502      4504      4500      4499      4502      4503
      4500      4499      4502      4504      4501      4499      4502      4503
      4501      4499      4502      4504      4499      4502      4504      4505
      4499      4502      4504      4506      4503      4502      4504      4505
      4503      4502      4504      4506      4502      4504      4506      4507
      4502      4504      4506      4508      4502      4504      4506      4509
      4505      4504      4506      4507      4505      4504      4506      4508
      4505      4504      4506      4509      4504      4506      4509      4510
      4504      4506      4509      4511      4504      4506      4509      4512
      4507      4506      4509      4510      4507      4506      4509      4511
      4507      4506      4509      4512      4508      4506      4509      4510
      4508      4506      4509      4511      4508      4506      4509      4512
      4506      4509      4512      4513      4506      4509      4512      4514
      4506      4509      4512      4515      4510      4509      4512      4513
      4510      4509      4512      4514      4510      4509      4512      4515
      4511      4509      4512      4513      4511      4509      4512      4514
      4511      4509      4512      4515      4509      4512      4515      4516
      4509      4512      4515      4517      4509      4512      4515      4518
      4513      4512      4515      4516      4513      4512      4515      4517
      4513      4512      4515      4518      4514      4512      4515      4516
      4514      4512      4515      4517      4514      4512      4515      4518
      4512      4515      4518      4519      4512      4515      4518      4520
      4512      4515      4518      4521      4516      4515      4518      4519
      4516      4515      4518      4520      4516      4515      4518      4521
      4517      4515      4518      4519      4517      4515      4518      4520
      4517      4515      4518      4521      4515      4518      4521      4522
      4515      4518      4521      4523      4515      4518      4521      4524
      4519      4518      4521      4522      4519      4518      4521      4523
      4519      4518      4521      4524      4520      4518      4521      4522
      4520      4518      4521      4523      4520      4518      4521      4524
      4518      4521      4524      4525      4518      4521      4524      4526
      4518      4521      4524      4527      4522      4521      4524      4525
      4522      4521      4524      4526      4522      4521      4524      4527
      4523      4521      4524      4525      4523      4521      4524      4526
      4523      4521      4524      4527      4521      4524      4527      4528
      4521      4524      4527      4529      4521      4524      4527      4530
      4525      4524      4527      4528      4525      4524      4527      4529
      4525      4524      4527      4530      4526      4524      4527      4528
      4526      4524      4527      4529      4526      4524      4527      4530
      4532      4531      4535      4536      4532      4531      4535      4537
      4532      4531      4535      4538      4533      4531      4535      4536
      4533      4531      4535      4537      4533      4531      4535      4538
      4534      4531      4535      4536      4534      4531      4535      4537
      4534      4531      4535      4538      4531      4535      4538      4539
      4531      4535      4538      4540      4531      4535      4538      4541
      4536      4535      4538      4539      4536      4535      4538      4540
      4536      4535      4538      4541      4537      4535      4538      4539
      4537      4535      4538      4540      4537      4535      4538      4541
      4535      4538      4541      4542      4535      4538      4541      4543
      4535      4538      4541      4544      4539      4538      4541      4542
      4539      4538      4541      4543      4539      4538      4541      4544
      4540      4538      4541      4542      4540      4538      4541      4543
      4540      4538      4541      4544      4538      4541      4544      4545
      4538      4541      4544      4546      4538      4541      4544      4547
      4542      4541      4544      4545      4542      4541      4544      4546
      4542      4541      4544      4547      4543      4541      4544      4545
      4543      4541      4544      4546      4543      4541      4544      4547
      4541      4544      4547      4548      4541      4544      4547      4549
      4541      4544      4547      4550      4545      4544      4547      4548
      4545      4544      4547      4549      4545      4544      4547      4550
      4546      4544      4547      4548      4546      4544      4547      4549
      4546      4544      4547      4550      4544      4547      4550      4551
      4544      4547      4550      4552      4544      4547      4550      4553
      4548      4547      4550      4551      4548      4547      4550      4552
      4548      4547      4550      4553      4549      4547      4550      4551
      4549      4547      4550      4552      4549      4547      4550      4553
      4547      4550      4553      4554      4547      4550      4553      4555
      4547      4550      4553      4556      4551      4550      4553      4554
      4551      4550      4553      4555      4551      4550      4553      4556
      4552      4550      4553      4554      4552      4550      4553      4555
      4552      4550      4553      4556      4550      4553      4556      4557
      4550      4553      4556      4558      4550      4553      4556      4559
      4554      4553      4556      4557      4554      4553      4556      4558
      4554      4553      4556      4559      4555      4553      4556      4557
      4555      4553      4556      4558      4555      4553      4556      4559
      4553      4556      4559      4560      4553      4556      4559      4561
      4553      4556      4559      4562      4557      4556      4559      4560
      4557      4556      4559      4561      4557      4556      4559      4562
      4558      4556      4559      4560      4558      4556      4559      4561
      4558      4556      4559      4562      4556      4559      4562      4563
      4556      4559      4562      4564      4556      4559      4562      4565
      4560      4559      4562      4563      4560      4559      4562      4564
      4560      4559      4562      4565      4561      4559      4562      4563
      4561      4559      4562      4564      4561      4559      4562      4565
      4559      4562      4565      4566      4559      4562      4565      4567
      4559      4562      4565      4568      4563      4562      4565      4566
      4563      4562      4565      4567      4563      4562      4565      4568
      4564      4562      4565      4566      4564      4562      4565      4567
      4564      4562      4565      4568      4562      4565      4568      4569
      4562      4565      4568      4570      4562      4565      4568      4571
      4566      4565      4568      4569      4566      4565      4568      4570
      4566      4565      4568      4571      4567      4565      4568      4569
      4567      4565      4568      4570      4567      4565      4568      4571
      4565      4568      4571      4572      4565      4568      4571      4573
      4565      4568      4571      4574      4569      4568      4571      4572
      4569      4568      4571      4573      4569      4568      4571      4574
      4570      4568      4571      4572      4570      4568      4571      4573
      4570      4568      4571      4574      4568      4571      4574      4577
      4568      4571      4574      4575      4568      4571      4574      4576
      4572      4571      4574      4577      4572      4571      4574      4575
      4572      4571      4574      4576      4573      4571      4574      4577
      4573      4571      4574      4575      4573      4571      4574      4576
      4578      4577      4574      4571      4579      4577      4574      4571
      4578      4577      4574      4575      4579      4577      4574      4575
      4578      4577      4574      4576      4579      4577      4574      4576
      4574      4577      4579      4580      4578      4577      4579      4580
      4577      4579      4580      4581      4577      4579      4580      4582
      4577      4579      4580      4583      4579      4580      4583      4584
      4579      4580      4583      4585      4579      4580      4583      4612
      4581      4580      4583      4584      4581      4580      4583      4585
      4581      4580      4583      4612      4582      4580      4583      4584
      4582      4580      4583      4585      4582      4580      4583      4612
      4580      4583      4585      4586      4580      4583      4585      4587
      4580      4583      4585      4588      4580      4583      4612      4613
      4584      4583      4585      4586      4584      4583      4585      4587
      4584      4583      4585      4588      4584      4583      4612      4613
      4586      4585      4583      4612      4587      4585      4583      4612
      4588      4585      4583      4612      4585      4583      4612      4613
      4583      4585      4588      4589      4586      4585      4588      4589
      4587      4585      4588      4589      4585      4588      4589      4590
      4585      4588      4589      4610      4585      4588      4589      4611
      4588      4589      4590      4591      4591      4590      4589      4610
      4591      4590      4589      4611      4589      4590      4591      4592
      4589      4590      4591      4593      4589      4590      4591      4594
      4590      4591      4594      4595      4590      4591      4594      4596
      4590      4591      4594      4597      4592      4591      4594      4595
      4592      4591      4594      4596      4592      4591      4594      4597
      4593      4591      4594      4595      4593      4591      4594      4596
      4593      4591      4594      4597      4591      4594      4597      4598
      4591      4594      4597      4602      4591      4594      4597      4606
      4595      4594      4597      4598      4595      4594      4597      4602
      4595      4594      4597      4606      4596      4594      4597      4598
      4596      4594      4597      4602      4596      4594      4597      4606
      4594      4597      4598      4599      4594      4597      4598      4600
      4594      4597      4598      4601      4594      4597      4602      4603
      4594      4597      4602      4604      4594      4597      4602      4605
      4594      4597      4606      4607      4594      4597      4606      4608
      4594      4597      4606      4609      4599      4598      4597      4602
      4600      4598      4597      4602      4601      4598      4597      4602
      4598      4597      4602      4603      4598      4597      4602      4604
      4598      4597      4602      4605      4599      4598      4597      4606
      4600      4598      4597      4606      4601      4598      4597      4606
      4598      4597      4606      4607      4598      4597      4606      4608
      4598      4597      4606      4609      4603      4602      4597      4606
      4604      4602      4597      4606      4605      4602      4597      4606
      4602      4597      4606      4607      4602      4597      4606      4608
      4602      4597      4606      4609      4583      4612      4613      4615
      4583      4612      4613      4614      4616      4615      4613      4612
      4617      4615      4613      4612      4618      4615      4613      4612
      4616      4615      4613      4614      4617      4615      4613      4614
      4618      4615      4613      4614      4613      4615      4618      4619
      4613      4615      4618      4620      4613      4615      4618      4621
      4616      4615      4618      4619      4616      4615      4618      4620
      4616      4615      4618      4621      4617      4615      4618      4619
      4617      4615      4618      4620      4617      4615      4618      4621
      4615      4618      4621      4622      4615      4618      4621      4623
      4615      4618      4621      4624      4619      4618      4621      4622
      4619      4618      4621      4623      4619      4618      4621      4624
      4620      4618      4621      4622      4620      4618      4621      4623
      4620      4618      4621      4624      4618      4621      4624      4625
      4618      4621      4624      4626      4618      4621      4624      4627
      4622      4621      4624      4625      4622      4621      4624      4626
      4622      4621      4624      4627      4623      4621      4624      4625
      4623      4621      4624      4626      4623      4621      4624      4627
      4621      4624      4627      4628      4621      4624      4627      4629
      4621      4624      4627      4630      4625      4624      4627      4628
      4625      4624      4627      4629      4625      4624      4627      4630
      4626      4624      4627      4628      4626      4624      4627      4629
      4626      4624      4627      4630      4624      4627      4630      4631
      4624      4627      4630      4632      4624      4627      4630      4633
      4628      4627      4630      4631      4628      4627      4630      4632
      4628      4627      4630      4633      4629      4627      4630      4631
      4629      4627      4630      4632      4629      4627      4630      4633
      4627      4630      4633      4634      4627      4630      4633      4635
      4627      4630      4633      4636      4631      4630      4633      4634
      4631      4630      4633      4635      4631      4630      4633      4636
      4632      4630      4633      4634      4632      4630      4633      4635
      4632      4630      4633      4636      4630      4633      4636      4637
      4630      4633      4636      4638      4634      4633      4636      4637
      4634      4633      4636      4638      4635      4633      4636      4637
      4635      4633      4636      4638      4633      4636      4638      4639
      4633      4636      4638      4640      4637      4636      4638      4639
      4637      4636      4638      4640      4636      4638      4640      4641
      4636      4638      4640      4642      4636      4638      4640      4643
      4639      4638      4640      4641      4639      4638      4640      4642
      4639      4638      4640      4643      4638      4640      4643      4644
      4638      4640      4643      4645      4638      4640      4643      4646
      4641      4640      4643      4644      4641      4640      4643      4645
      4641      4640      4643      4646      4642      4640      4643      4644
      4642      4640      4643      4645      4642      4640      4643      4646
      4640      4643      4646      4647      4640      4643      4646      4648
      4640      4643      4646      4649      4644      4643      4646      4647
      4644      4643      4646      4648      4644      4643      4646      4649
      4645      4643      4646      4647      4645      4643      4646      4648
      4645      4643      4646      4649      4643      4646      4649      4650
      4643      4646      4649      4651      4643      4646      4649      4652
      4647      4646      4649      4650      4647      4646      4649      4651
      4647      4646      4649      4652      4648      4646      4649      4650
      4648      4646      4649      4651      4648      4646      4649      4652
      4646      4649      4652      4653      4646      4649      4652      4654
      4646      4649      4652      4655      4650      4649      4652      4653
      4650      4649      4652      4654      4650      4649      4652      4655
      4651      4649      4652      4653      4651      4649      4652      4654
      4651      4649      4652      4655      4649      4652      4655      4656
      4649      4652      4655      4657      4649      4652      4655      4658
      4653      4652      4655      4656      4653      4652      4655      4657
      4653      4652      4655      4658      4654      4652      4655      4656
      4654      4652      4655      4657      4654      4652      4655      4658
      4652      4655      4658      4659      4652      4655      4658      4660
      4652      4655      4658      4661      4656      4655      4658      4659
      4656      4655      4658      4660      4656      4655      4658      4661
      4657      4655      4658      4659      4657      4655      4658      4660
      4657      4655      4658      4661      4655      4658      4661      4662
      4655      4658      4661      4663      4655      4658      4661      4664
      4659      4658      4661      4662      4659      4658      4661      4663
      4659      4658      4661      4664      4660      4658      4661      4662
      4660      4658      4661      4663      4660      4658      4661      4664
      4666      4665      4669      4670      4666      4665      4669      4671
      4666      4665      4669      4672      4667      4665      4669      4670
      4667      4665      4669      4671      4667      4665      4669      4672
      4668      4665      4669      4670      4668      4665      4669      4671
      4668      4665      4669      4672      4665      4669      4672      4673
      4665      4669      4672      4674      4665      4669      4672      4675
      4670      4669      4672      4673      4670      4669      4672      4674
      4670      4669      4672      4675      4671      4669      4672      4673
      4671      4669      4672      4674      4671      4669      4672      4675
      4669      4672      4675      4676      4669      4672      4675      4677
      4669      4672      4675      4678      4673      4672      4675      4676
      4673      4672      4675      4677      4673      4672      4675      4678
      4674      4672      4675      4676      4674      4672      4675      4677
      4674      4672      4675      4678      4672      4675      4678      4679
      4672      4675      4678      4680      4672      4675      4678      4681
      4676      4675      4678      4679      4676      4675      4678      4680
      4676      4675      4678      4681      4677      4675      4678      4679
      4677      4675      4678      4680      4677      4675      4678      4681
      4675      4678      4681      4682      4675      4678      4681      4683
      4675      4678      4681      4684      4679      4678      4681      4682
      4679      4678      4681      4683      4679      4678      4681      4684
      4680      4678      4681      4682      4680      4678      4681      4683
      4680      4678      4681      4684      4678      4681      4684      4685
      4678      4681      4684      4686      4678      4681      4684      4687
      4682      4681      4684      4685      4682      4681      4684      4686
      4682      4681      4684      4687      4683      4681      4684      4685
      4683      4681      4684      4686      4683      4681      4684      4687
      4681      4684      4687      4688      4681      4684      4687      4689
      4681      4684      4687      4690      4685      4684      4687      4688
      4685      4684      4687      4689      4685      4684      4687      4690
      4686      4684      4687      4688      4686      4684      4687      4689
      4686      4684      4687      4690      4684      4687      4690      4691
      4684      4687      4690      4692      4684      4687      4690      4693
      4688      4687      4690      4691      4688      4687      4690      4692
      4688      4687      4690      4693      4689      4687      4690      4691
      4689      4687      4690      4692      4689      4687      4690      4693
      4687      4690      4693      4694      4687      4690      4693      4695
      4687      4690      4693      4696      4691      4690      4693      4694
      4691      4690      4693      4695      4691      4690      4693      4696
      4692      4690      4693      4694      4692      4690      4693      4695
      4692      4690      4693      4696      4690      4693      4696      4697
      4690      4693      4696      4698      4690      4693      4696      4699
      4694      4693      4696      4697      4694      4693      4696      4698
      4694      4693      4696      4699      4695      4693      4696      4697
      4695      4693      4696      4698      4695      4693      4696      4699
      4693      4696      4699      4700      4693      4696      4699      4701
      4693      4696      4699      4702      4697      4696      4699      4700
      4697      4696      4699      4701      4697      4696      4699      4702
      4698      4696      4699      4700      4698      4696      4699      4701
      4698      4696      4699      4702      4696      4699      4702      4703
      4696      4699      4702      4704      4696      4699      4702      4705
      4700      4699      4702      4703      4700      4699      4702      4704
      4700      4699      4702      4705      4701      4699      4702      4703
      4701      4699      4702      4704      4701      4699      4702      4705
      4699      4702      4705      4706      4699      4702      4705      4707
      4699      4702      4705      4708      4703      4702      4705      4706
      4703      4702      4705      4707      4703      4702      4705      4708
      4704      4702      4705      4706      4704      4702      4705      4707
      4704      4702      4705      4708      4702      4705      4708      4711
      4702      4705      4708      4709      4702      4705      4708      4710
      4706      4705      4708      4711      4706      4705      4708      4709
      4706      4705      4708      4710      4707      4705      4708      4711
      4707      4705      4708      4709      4707      4705      4708      4710
      4712      4711      4708      4705      4713      4711      4708      4705
      4712      4711      4708      4709      4713      4711      4708      4709
      4712      4711      4708      4710      4713      4711      4708      4710
      4708      4711      4713      4714      4712      4711      4713      4714
      4711      4713      4714      4715      4711      4713      4714      4716
      4711      4713      4714      4717      4713      4714      4717      4718
      4713      4714      4717      4719      4713      4714      4717      4746
      4715      4714      4717      4718      4715      4714      4717      4719
      4715      4714      4717      4746      4716      4714      4717      4718
      4716      4714      4717      4719      4716      4714      4717      4746
      4714      4717      4719      4720      4714      4717      4719      4721
      4714      4717      4719      4722      4714      4717      4746      4747
      4718      4717      4719      4720      4718      4717      4719      4721
      4718      4717      4719      4722      4718      4717      4746      4747
      4720      4719      4717      4746      4721      4719      4717      4746
      4722      4719      4717      4746      4719      4717      4746      4747
      4717      4719      4722      4723      4720      4719      4722      4723
      4721      4719      4722      4723      4719      4722      4723      4724
      4719      4722      4723      4744      4719      4722      4723      4745
      4722      4723      4724      4725      4725      4724      4723      4744
      4725      4724      4723      4745      4723      4724      4725      4726
      4723      4724      4725      4727      4723      4724      4725      4728
      4724      4725      4728      4729      4724      4725      4728      4730
      4724      4725      4728      4731      4726      4725      4728      4729
      4726      4725      4728      4730      4726      4725      4728      4731
      4727      4725      4728      4729      4727      4725      4728      4730
      4727      4725      4728      4731      4725      4728      4731      4732
      4725      4728      4731      4736      4725      4728      4731      4740
      4729      4728      4731      4732      4729      4728      4731      4736
      4729      4728      4731      4740      4730      4728      4731      4732
      4730      4728      4731      4736      4730      4728      4731      4740
      4728      4731      4732      4733      4728      4731      4732      4734
      4728      4731      4732      4735      4728      4731      4736      4737
      4728      4731      4736      4738      4728      4731      4736      4739
      4728      4731      4740      4741      4728      4731      4740      4742
      4728      4731      4740      4743      4733      4732      4731      4736
      4734      4732      4731      4736      4735      4732      4731      4736
      4732      4731      4736      4737      4732      4731      4736      4738
      4732      4731      4736      4739      4733      4732      4731      4740
      4734      4732      4731      4740      4735      4732      4731      4740
      4732      4731      4740      4741      4732      4731      4740      4742
      4732      4731      4740      4743      4737      4736      4731      4740
      4738      4736      4731      4740      4739      4736      4731      4740
      4736      4731      4740      4741      4736      4731      4740      4742
      4736      4731      4740      4743      4717      4746      4747      4749
      4717      4746      4747      4748      4750      4749      4747      4746
      4751      4749      4747      4746      4752      4749      4747      4746
      4750      4749      4747      4748      4751      4749      4747      4748
      4752      4749      4747      4748      4747      4749      4752      4753
      4747      4749      4752      4754      4747      4749      4752      4755
      4750      4749      4752      4753      4750      4749      4752      4754
      4750      4749      4752      4755      4751      4749      4752      4753
      4751      4749      4752      4754      4751      4749      4752      4755
      4749      4752      4755      4756      4749      4752      4755      4757
      4749      4752      4755      4758      4753      4752      4755      4756
      4753      4752      4755      4757      4753      4752      4755      4758
      4754      4752      4755      4756      4754      4752      4755      4757
      4754      4752      4755      4758      4752      4755      4758      4759
      4752      4755      4758      4760      4752      4755      4758      4761
      4756      4755      4758      4759      4756      4755      4758      4760
      4756      4755      4758      4761      4757      4755      4758      4759
      4757      4755      4758      4760      4757      4755      4758      4761
      4755      4758      4761      4762      4755      4758      4761      4763
      4755      4758      4761      4764      4759      4758      4761      4762
      4759      4758      4761      4763      4759      4758      4761      4764
      4760      4758      4761      4762      4760      4758      4761      4763
      4760      4758      4761      4764      4758      4761      4764      4765
      4758      4761      4764      4766      4758      4761      4764      4767
      4762      4761      4764      4765      4762      4761      4764      4766
      4762      4761      4764      4767      4763      4761      4764      4765
      4763      4761      4764      4766      4763      4761      4764      4767
      4761      4764      4767      4768      4761      4764      4767      4769
      4761      4764      4767      4770      4765      4764      4767      4768
      4765      4764      4767      4769      4765      4764      4767      4770
      4766      4764      4767      4768      4766      4764      4767      4769
      4766      4764      4767      4770      4764      4767      4770      4771
      4764      4767      4770      4772      4768      4767      4770      4771
      4768      4767      4770      4772      4769      4767      4770      4771
      4769      4767      4770      4772      4767      4770      4772      4773
      4767      4770      4772      4774      4771      4770      4772      4773
      4771      4770      4772      4774      4770      4772      4774      4775
      4770      4772      4774      4776      4770      4772      4774      4777
      4773      4772      4774      4775      4773      4772      4774      4776
      4773      4772      4774      4777      4772      4774      4777      4778
      4772      4774      4777      4779      4772      4774      4777      4780
      4775      4774      4777      4778      4775      4774      4777      4779
      4775      4774      4777      4780      4776      4774      4777      4778
      4776      4774      4777      4779      4776      4774      4777      4780
      4774      4777      4780      4781      4774      4777      4780      4782
      4774      4777      4780      4783      4778      4777      4780      4781
      4778      4777      4780      4782      4778      4777      4780      4783
      4779      4777      4780      4781      4779      4777      4780      4782
      4779      4777      4780      4783      4777      4780      4783      4784
      4777      4780      4783      4785      4777      4780      4783      4786
      4781      4780      4783      4784      4781      4780      4783      4785
      4781      4780      4783      4786      4782      4780      4783      4784
      4782      4780      4783      4785      4782      4780      4783      4786
      4780      4783      4786      4787      4780      4783      4786      4788
      4780      4783      4786      4789      4784      4783      4786      4787
      4784      4783      4786      4788      4784      4783      4786      4789
      4785      4783      4786      4787      4785      4783      4786      4788
      4785      4783      4786      4789      4783      4786      4789      4790
      4783      4786      4789      4791      4783      4786      4789      4792
      4787      4786      4789      4790      4787      4786      4789      4791
      4787      4786      4789      4792      4788      4786      4789      4790
      4788      4786      4789      4791      4788      4786      4789      4792
      4786      4789      4792      4793      4786      4789      4792      4794
      4786      4789      4792      4795      4790      4789      4792      4793
      4790      4789      4792      4794      4790      4789      4792      4795
      4791      4789      4792      4793      4791      4789      4792      4794
      4791      4789      4792      4795      4789      4792      4795      4796
      4789      4792      4795      4797      4789      4792      4795      4798
      4793      4792      4795      4796      4793      4792      4795      4797
      4793      4792      4795      4798      4794      4792      4795      4796
      4794      4792      4795      4797      4794      4792      4795      4798
      4800      4799      4803      4804      4800      4799      4803      4805
      4800      4799      4803      4806      4801      4799      4803      4804
      4801      4799      4803      4805      4801      4799      4803      4806
      4802      4799      4803      4804      4802      4799      4803      4805
      4802      4799      4803      4806      4799      4803      4806      4807
      4799      4803      4806      4808      4799      4803      4806      4809
      4804      4803      4806      4807      4804      4803      4806      4808
      4804      4803      4806      4809      4805      4803      4806      4807
      4805      4803      4806      4808      4805      4803      4806      4809
      4803      4806      4809      4810      4803      4806      4809      4811
      4803      4806      4809      4812      4807      4806      4809      4810
      4807      4806      4809      4811      4807      4806      4809      4812
      4808      4806      4809      4810      4808      4806      4809      4811
      4808      4806      4809      4812      4806      4809      4812      4813
      4806      4809      4812      4814      4806      4809      4812      4815
      4810      4809      4812      4813      4810      4809      4812      4814
      4810      4809      4812      4815      4811      4809      4812      4813
      4811      4809      4812      4814      4811      4809      4812      4815
      4809      4812      4815      4816      4809      4812      4815      4817
      4809      4812      4815      4818      4813      4812      4815      4816
      4813      4812      4815      4817      4813      4812      4815      4818
      4814      4812      4815      4816      4814      4812      4815      4817
      4814      4812      4815      4818      4812      4815      4818      4819
      4812      4815      4818      4820      4812      4815      4818      4821
      4816      4815      4818      4819      4816      4815      4818      4820
      4816      4815      4818      4821      4817      4815      4818      4819
      4817      4815      4818      4820      4817      4815      4818      4821
      4815      4818      4821      4822      4815      4818      4821      4823
      4815      4818      4821      4824      4819      4818      4821      4822
      4819      4818      4821      4823      4819      4818      4821      4824
      4820      4818      4821      4822      4820      4818      4821      4823
      4820      4818      4821      4824      4818      4821      4824      4825
      4818      4821      4824      4826      4818      4821      4824      4827
      4822      4821      4824      4825      4822      4821      4824      4826
      4822      4821      4824      4827      4823      4821      4824      4825
      4823      4821      4824      4826      4823      4821      4824      4827
      4821      4824      4827      4828      4821      4824      4827      4829
      4821      4824      4827      4830      4825      4824      4827      4828
      4825      4824      4827      4829      4825      4824      4827      4830
      4826      4824      4827      4828      4826      4824      4827      4829
      4826      4824      4827      4830      4824      4827      4830      4831
      4824      4827      4830      4832      4824      4827      4830      4833
      4828      4827      4830      4831      4828      4827      4830      4832
      4828      4827      4830      4833      4829      4827      4830      4831
      4829      4827      4830      4832      4829      4827      4830      4833
      4827      4830      4833      4834      4827      4830      4833      4835
      4827      4830      4833      4836      4831      4830      4833      4834
      4831      4830      4833      4835      4831      4830      4833      4836
      4832      4830      4833      4834      4832      4830      4833      4835
      4832      4830      4833      4836      4830      4833      4836      4837
      4830      4833      4836      4838      4830      4833      4836      4839
      4834      4833      4836      4837      4834      4833      4836      4838
      4834      4833      4836      4839      4835      4833      4836      4837
      4835      4833      4836      4838      4835      4833      4836      4839
      4833      4836      4839      4840      4833      4836      4839      4841
      4833      4836      4839      4842      4837      4836      4839      4840
      4837      4836      4839      4841      4837      4836      4839      4842
      4838      4836      4839      4840      4838      4836      4839      4841
      4838      4836      4839      4842      4836      4839      4842      4845
      4836      4839      4842      4843      4836      4839      4842      4844
      4840      4839      4842      4845      4840      4839      4842      4843
      4840      4839      4842      4844      4841      4839      4842      4845
      4841      4839      4842      4843      4841      4839      4842      4844
      4846      4845      4842      4839      4847      4845      4842      4839
      4846      4845      4842      4843      4847      4845      4842      4843
      4846      4845      4842      4844      4847      4845      4842      4844
      4842      4845      4847      4848      4846      4845      4847      4848
      4845      4847      4848      4849      4845      4847      4848      4850
      4845      4847      4848      4851      4847      4848      4851      4852
      4847      4848      4851      4853      4847      4848      4851      4880
      4849      4848      4851      4852      4849      4848      4851      4853
      4849      4848      4851      4880      4850      4848      4851      4852
      4850      4848      4851      4853      4850      4848      4851      4880
      4848      4851      4853      4854      4848      4851      4853      4855
      4848      4851      4853      4856      4848      4851      4880      4881
      4852      4851      4853      4854      4852      4851      4853      4855
      4852      4851      4853      4856      4852      4851      4880      4881
      4854      4853      4851      4880      4855      4853      4851      4880
      4856      4853      4851      4880      4853      4851      4880      4881
      4851      4853      4856      4857      4854      4853      4856      4857
      4855      4853      4856      4857      4853      4856      4857      4858
      4853      4856      4857      4878      4853      4856      4857      4879
      4856      4857      4858      4859      4859      4858      4857      4878
      4859      4858      4857      4879      4857      4858      4859      4860
      4857      4858      4859      4861      4857      4858      4859      4862
      4858      4859      4862      4863      4858      4859      4862      4864
      4858      4859      4862      4865      4860      4859      4862      4863
      4860      4859      4862      4864      4860      4859      4862      4865
      4861      4859      4862      4863      4861      4859      4862      4864
      4861      4859      4862      4865      4859      4862      4865      4866
      4859      4862      4865      4870      4859      4862      4865      4874
      4863      4862      4865      4866      4863      4862      4865      4870
      4863      4862      4865      4874      4864      4862      4865      4866
      4864      4862      4865      4870      4864      4862      4865      4874
      4862      4865      4866      4867      4862      4865      4866      4868
      4862      4865      4866      4869      4862      4865      4870      4871
      4862      4865      4870      4872      4862      4865      4870      4873
      4862      4865      4874      4875      4862      4865      4874      4876
      4862      4865      4874      4877      4867      4866      4865      4870
      4868      4866      4865      4870      4869      4866      4865      4870
      4866      4865      4870      4871      4866      4865      4870      4872
      4866      4865      4870      4873      4867      4866      4865      4874
      4868      4866      4865      4874      4869      4866      4865      4874
      4866      4865      4874      4875      4866      4865      4874      4876
      4866      4865      4874      4877      4871      4870      4865      4874
      4872      4870      4865      4874      4873      4870      4865      4874
      4870      4865      4874      4875      4870      4865      4874      4876
      4870      4865      4874      4877      4851      4880      4881      4883
      4851      4880      4881      4882      4884      4883      4881      4880
      4885      4883      4881      4880      4886      4883      4881      4880
      4884      4883      4881      4882      4885      4883      4881      4882
      4886      4883      4881      4882      4881      4883      4886      4887
      4881      4883      4886      4888      4881      4883      4886      4889
      4884      4883      4886      4887      4884      4883      4886      4888
      4884      4883      4886      4889      4885      4883      4886      4887
      4885      4883      4886      4888      4885      4883      4886      4889
      4883      4886      4889      4890      4883      4886      4889      4891
      4883      4886      4889      4892      4887      4886      4889      4890
      4887      4886      4889      4891      4887      4886      4889      4892
      4888      4886      4889      4890      4888      4886      4889      4891
      4888      4886      4889      4892      4886      4889      4892      4893
      4886      4889      4892      4894      4886      4889      4892      4895
      4890      4889      4892      4893      4890      4889      4892      4894
      4890      4889      4892      4895      4891      4889      4892      4893
      4891      4889      4892      4894      4891      4889      4892      4895
      4889      4892      4895      4896      4889      4892      4895      4897
      4889      4892      4895      4898      4893      4892      4895      4896
      4893      4892      4895      4897      4893      4892      4895      4898
      4894      4892      4895      4896      4894      4892      4895      4897
      4894      4892      4895      4898      4892      4895      4898      4899
      4892      4895      4898      4900      4892      4895      4898      4901
      4896      4895      4898      4899      4896      4895      4898      4900
      4896      4895      4898      4901      4897      4895      4898      4899
      4897      4895      4898      4900      4897      4895      4898      4901
      4895      4898      4901      4902      4895      4898      4901      4903
      4895      4898      4901      4904      4899      4898      4901      4902
      4899      4898      4901      4903      4899      4898      4901      4904
      4900      4898      4901      4902      4900      4898      4901      4903
      4900      4898      4901      4904      4898      4901      4904      4905
      4898      4901      4904      4906      4902      4901      4904      4905
      4902      4901      4904      4906      4903      4901      4904      4905
      4903      4901      4904      4906      4901      4904      4906      4907
      4901      4904      4906      4908      4905      4904      4906      4907
      4905      4904      4906      4908      4904      4906      4908      4909
      4904      4906      4908      4910      4904      4906      4908      4911
      4907      4906      4908      4909      4907      4906      4908      4910
      4907      4906      4908      4911      4906      4908      4911      4912
      4906      4908      4911      4913      4906      4908      4911      4914
      4909      4908      4911      4912      4909      4908      4911      4913
      4909      4908      4911      4914      4910      4908      4911      4912
      4910      4908      4911      4913      4910      4908      4911      4914
      4908      4911      4914      4915      4908      4911      4914      4916
      4908      4911      4914      4917      4912      4911      4914      4915
      4912      4911      4914      4916      4912      4911      4914      4917
      4913      4911      4914      4915      4913      4911      4914      4916
      4913      4911      4914      4917      4911      4914      4917      4918
      4911      4914      4917      4919      4911      4914      4917      4920
      4915      4914      4917      4918      4915      4914      4917      4919
      4915      4914      4917      4920      4916      4914      4917      4918
      4916      4914      4917      4919      4916      4914      4917      4920
      4914      4917      4920      4921      4914      4917      4920      4922
      4914      4917      4920      4923      4918      4917      4920      4921
      4918      4917      4920      4922      4918      4917      4920      4923
      4919      4917      4920      4921      4919      4917      4920      4922
      4919      4917      4920      4923      4917      4920      4923      4924
      4917      4920      4923      4925      4917      4920      4923      4926
      4921      4920      4923      4924      4921      4920      4923      4925
      4921      4920      4923      4926      4922      4920      4923      4924
      4922      4920      4923      4925      4922      4920      4923      4926
      4920      4923      4926      4927      4920      4923      4926      4928
      4920      4923      4926      4929      4924      4923      4926      4927
      4924      4923      4926      4928      4924      4923      4926      4929
      4925      4923      4926      4927      4925      4923      4926      4928
      4925      4923      4926      4929      4923      4926      4929      4930
      4923      4926      4929      4931      4923      4926      4929      4932
      4927      4926      4929      4930      4927      4926      4929      4931
      4927      4926      4929      4932      4928      4926      4929      4930
      4928      4926      4929      4931      4928      4926      4929      4932
      4934      4933      4937      4938      4934      4933      4937      4939
      4934      4933      4937      4940      4935      4933      4937      4938
      4935      4933      4937      4939      4935      4933      4937      4940
      4936      4933      4937      4938      4936      4933      4937      4939
      4936      4933      4937      4940      4933      4937      4940      4941
      4933      4937      4940      4942      4933      4937      4940      4943
      4938      4937      4940      4941      4938      4937      4940      4942
      4938      4937      4940      4943      4939      4937      4940      4941
      4939      4937      4940      4942      4939      4937      4940      4943
      4937      4940      4943      4944      4937      4940      4943      4945
      4937      4940      4943      4946      4941      4940      4943      4944
      4941      4940      4943      4945      4941      4940      4943      4946
      4942      4940      4943      4944      4942      4940      4943      4945
      4942      4940      4943      4946      4940      4943      4946      4947
      4940      4943      4946      4948      4940      4943      4946      4949
      4944      4943      4946      4947      4944      4943      4946      4948
      4944      4943      4946      4949      4945      4943      4946      4947
      4945      4943      4946      4948      4945      4943      4946      4949
      4943      4946      4949      4950      4943      4946      4949      4951
      4943      4946      4949      4952      4947      4946      4949      4950
      4947      4946      4949      4951      4947      4946      4949      4952
      4948      4946      4949      4950      4948      4946      4949      4951
      4948      4946      4949      4952      4946      4949      4952      4953
      4946      4949      4952      4954      4946      4949      4952      4955
      4950      4949      4952      4953      4950      4949      4952      4954
      4950      4949      4952      4955      4951      4949      4952      4953
      4951      4949      4952      4954      4951      4949      4952      4955
      4949      4952      4955      4956      4949      4952      4955      4957
      4949      4952      4955      4958      4953      4952      4955      4956
      4953      4952      4955      4957      4953      4952      4955      4958
      4954      4952      4955      4956      4954      4952      4955      4957
      4954      4952      4955      4958      4952      4955      4958      4959
      4952      4955      4958      4960      4952      4955      4958      4961
      4956      4955      4958      4959      4956      4955      4958      4960
      4956      4955      4958      4961      4957      4955      4958      4959
      4957      4955      4958      4960      4957      4955      4958      4961
      4955      4958      4961      4962      4955      4958      4961      4963
      4955      4958      4961      4964      4959      4958      4961      4962
      4959      4958      4961      4963      4959      4958      4961      4964
      4960      4958      4961      4962      4960      4958      4961      4963
      4960      4958      4961      4964      4958      4961      4964      4965
      4958      4961      4964      4966      4958      4961      4964      4967
      4962      4961      4964      4965      4962      4961      4964      4966
      4962      4961      4964      4967      4963      4961      4964      4965
      4963      4961      4964      4966      4963      4961      4964      4967
      4961      4964      4967      4968      4961      4964      4967      4969
      4961      4964      4967      4970      4965      4964      4967      4968
      4965      4964      4967      4969      4965      4964      4967      4970
      4966      4964      4967      4968      4966      4964      4967      4969
      4966      4964      4967      4970      4964      4967      4970      4971
      4964      4967      4970      4972      4964      4967      4970      4973
      4968      4967      4970      4971      4968      4967      4970      4972
      4968      4967      4970      4973      4969      4967      4970      4971
      4969      4967      4970      4972      4969      4967      4970      4973
      4967      4970      4973      4974      4967      4970      4973      4975
      4967      4970      4973      4976      4971      4970      4973      4974
      4971      4970      4973      4975      4971      4970      4973      4976
      4972      4970      4973      4974      4972      4970      4973      4975
      4972      4970      4973      4976      4970      4973      4976      4979
      4970      4973      4976      4977      4970      4973      4976      4978
      4974      4973      4976      4979      4974      4973      4976      4977
      4974      4973      4976      4978      4975      4973      4976      4979
      4975      4973      4976      4977      4975      4973      4976      4978
      4980      4979      4976      4973      4981      4979      4976      4973
      4980      4979      4976      4977      4981      4979      4976      4977
      4980      4979      4976      4978      4981      4979      4976      4978
      4976      4979      4981      4982      4980      4979      4981      4982
      4979      4981      4982      4983      4979      4981      4982      4984
      4979      4981      4982      4985      4981      4982      4985      4986
      4981      4982      4985      4987      4981      4982      4985      5014
      4983      4982      4985      4986      4983      4982      4985      4987
      4983      4982      4985      5014      4984      4982      4985      4986
      4984      4982      4985      4987      4984      4982      4985      5014
      4982      4985      4987      4988      4982      4985      4987      4989
      4982      4985      4987      4990      4982      4985      5014      5015
      4986      4985      4987      4988      4986      4985      4987      4989
      4986      4985      4987      4990      4986      4985      5014      5015
      4988      4987      4985      5014      4989      4987      4985      5014
      4990      4987      4985      5014      4987      4985      5014      5015
      4985      4987      4990      4991      4988      4987      4990      4991
      4989      4987      4990      4991      4987      4990      4991      4992
      4987      4990      4991      5012      4987      4990      4991      5013
      4990      4991      4992      4993      4993      4992      4991      5012
      4993      4992      4991      5013      4991      4992      4993      4994
      4991      4992      4993      4995      4991      4992      4993      4996
      4992      4993      4996      4997      4992      4993      4996      4998
      4992      4993      4996      4999      4994      4993      4996      4997
      4994      4993      4996      4998      4994      4993      4996      4999
      4995      4993      4996      4997      4995      4993      4996      4998
      4995      4993      4996      4999      4993      4996      4999      5000
      4993      4996      4999      5004      4993      4996      4999      5008
      4997      4996      4999      5000      4997      4996      4999      5004
      4997      4996      4999      5008      4998      4996      4999      5000
      4998      4996      4999      5004      4998      4996      4999      5008
      4996      4999      5000      5001      4996      4999      5000      5002
      4996      4999      5000      5003      4996      4999      5004      5005
      4996      4999      5004      5006      4996      4999      5004      5007
      4996      4999      5008      5009      4996      4999      5008      5010
      4996      4999      5008      5011      5001      5000      4999      5004
      5002      5000      4999      5004      5003      5000      4999      5004
      5000      4999      5004      5005      5000      4999      5004      5006
      5000      4999      5004      5007      5001      5000      4999      5008
      5002      5000      4999      5008      5003      5000      4999      5008
      5000      4999      5008      5009      5000      4999      5008      5010
      5000      4999      5008      5011      5005      5004      4999      5008
      5006      5004      4999      5008      5007      5004      4999      5008
      5004      4999      5008      5009      5004      4999      5008      5010
      5004      4999      5008      5011      4985      5014      5015      5017
      4985      5014      5015      5016      5018      5017      5015      5014
      5019      5017      5015      5014      5020      5017      5015      5014
      5018      5017      5015      5016      5019      5017      5015      5016
      5020      5017      5015      5016      5015      5017      5020      5021
      5015      5017      5020      5022      5015      5017      5020      5023
      5018      5017      5020      5021      5018      5017      5020      5022
      5018      5017      5020      5023      5019      5017      5020      5021
      5019      5017      5020      5022      5019      5017      5020      5023
      5017      5020      5023      5024      5017      5020      5023      5025
      5017      5020      5023      5026      5021      5020      5023      5024
      5021      5020      5023      5025      5021      5020      5023      5026
      5022      5020      5023      5024      5022      5020      5023      5025
      5022      5020      5023      5026      5020      5023      5026      5027
      5020      5023      5026      5028      5020      5023      5026      5029
      5024      5023      5026      5027      5024      5023      5026      5028
      5024      5023      5026      5029      5025      5023      5026      5027
      5025      5023      5026      5028      5025      5023      5026      5029
      5023      5026      5029      5030      5023      5026      5029      5031
      5023      5026      5029      5032      5027      5026      5029      5030
      5027      5026      5029      5031      5027      5026      5029      5032
      5028      5026      5029      5030      5028      5026      5029      5031
      5028      5026      5029      5032      5026      5029      5032      5033
      5026      5029      5032      5034      5026      5029      5032      5035
      5030      5029      5032      5033      5030      5029      5032      5034
      5030      5029      5032      5035      5031      5029      5032      5033
      5031      5029      5032      5034      5031      5029      5032      5035
      5029      5032      5035      5036      5029      5032      5035      5037
      5029      5032      5035      5038      5033      5032      5035      5036
      5033      5032      5035      5037      5033      5032      5035      5038
      5034      5032      5035      5036      5034      5032      5035      5037
      5034      5032      5035      5038      5032      5035      5038      5039
      5032      5035      5038      5040      5036      5035      5038      5039
      5036      5035      5038      5040      5037      5035      5038      5039
      5037      5035      5038      5040      5035      5038      5040      5041
      5035      5038      5040      5042      5039      5038      5040      5041
      5039      5038      5040      5042      5038      5040      5042      5043
      5038      5040      5042      5044      5038      5040      5042      5045
      5041      5040      5042      5043      5041      5040      5042      5044
      5041      5040      5042      5045      5040      5042      5045      5046
      5040      5042      5045      5047      5040      5042      5045      5048
      5043      5042      5045      5046      5043      5042      5045      5047
      5043      5042      5045      5048      5044      5042      5045      5046
      5044      5042      5045      5047      5044      5042      5045      5048
      5042      5045      5048      5049      5042      5045      5048      5050
      5042      5045      5048      5051      5046      5045      5048      5049
      5046      5045      5048      5050      5046      5045      5048      5051
      5047      5045      5048      5049      5047      5045      5048      5050
      5047      5045      5048      5051      5045      5048      5051      5052
      5045      5048      5051      5053      5045      5048      5051      5054
      5049      5048      5051      5052      5049      5048      5051      5053
      5049      5048      5051      5054      5050      5048      5051      5052
      5050      5048      5051      5053      5050      5048      5051      5054
      5048      5051      5054      5055      5048      5051      5054      5056
      5048      5051      5054      5057      5052      5051      5054      5055
      5052      5051      5054      5056      5052      5051      5054      5057
      5053      5051      5054      5055      5053      5051      5054      5056
      5053      5051      5054      5057      5051      5054      5057      5058
      5051      5054      5057      5059      5051      5054      5057      5060
      5055      5054      5057      5058      5055      5054      5057      5059
      5055      5054      5057      5060      5056      5054      5057      5058
      5056      5054      5057      5059      5056      5054      5057      5060
      5054      5057      5060      5061      5054      5057      5060      5062
      5054      5057      5060      5063      5058      5057      5060      5061
      5058      5057      5060      5062      5058      5057      5060      5063
      5059      5057      5060      5061      5059      5057      5060      5062
      5059      5057      5060      5063      5057      5060      5063      5064
      5057      5060      5063      5065      5057      5060      5063      5066
      5061      5060      5063      5064      5061      5060      5063      5065
      5061      5060      5063      5066      5062      5060      5063      5064
      5062      5060      5063      5065      5062      5060      5063      5066
      5068      5067      5071      5072      5068      5067      5071      5073
      5068      5067      5071      5074      5069      5067      5071      5072
      5069      5067      5071      5073      5069      5067      5071      5074
      5070      5067      5071      5072      5070      5067      5071      5073
      5070      5067      5071      5074      5067      5071      5074      5075
      5067      5071      5074      5076      5067      5071      5074      5077
      5072      5071      5074      5075      5072      5071      5074      5076
      5072      5071      5074      5077      5073      5071      5074      5075
      5073      5071      5074      5076      5073      5071      5074      5077
      5071      5074      5077      5078      5071      5074      5077      5079
      5071      5074      5077      5080      5075      5074      5077      5078
      5075      5074      5077      5079      5075      5074      5077      5080
      5076      5074      5077      5078      5076      5074      5077      5079
      5076      5074      5077      5080      5074      5077      5080      5081
      5074      5077      5080      5082      5074      5077      5080      5083
      5078      5077      5080      5081      5078      5077      5080      5082
      5078      5077      5080      5083      5079      5077      5080      5081
      5079      5077      5080      5082      5079      5077      5080      5083
      5077      5080      5083      5084      5077      5080      5083      5085
      5077      5080      5083      5086      5081      5080      5083      5084
      5081      5080      5083      5085      5081      5080      5083      5086
      5082      5080      5083      5084      5082      5080      5083      5085
      5082      5080      5083      5086      5080      5083      5086      5087
      5080      5083      5086      5088      5080      5083      5086      5089
      5084      5083      5086      5087      5084      5083      5086      5088
      5084      5083      5086      5089      5085      5083      5086      5087
      5085      5083      5086      5088      5085      5083      5086      5089
      5083      5086      5089      5090      5083      5086      5089      5091
      5083      5086      5089      5092      5087      5086      5089      5090
      5087      5086      5089      5091      5087      5086      5089      5092
      5088      5086      5089      5090      5088      5086      5089      5091
      5088      5086      5089      5092      5086      5089      5092      5093
      5086      5089      5092      5094      5086      5089      5092      5095
      5090      5089      5092      5093      5090      5089      5092      5094
      5090      5089      5092      5095      5091      5089      5092      5093
      5091      5089      5092      5094      5091      5089      5092      5095
      5089      5092      5095      5096      5089      5092      5095      5097
      5089      5092      5095      5098      5093      5092      5095      5096
      5093      5092      5095      5097      5093      5092      5095      5098
      5094      5092      5095      5096      5094      5092      5095      5097
      5094      5092      5095      5098      5092      5095      5098      5099
      5092      5095      5098      5100      5092      5095      5098      5101
      5096      5095      5098      5099      5096      5095      5098      5100
      5096      5095      5098      5101      5097      5095      5098      5099
      5097      5095      5098      5100      5097      5095      5098      5101
      5095      5098      5101      5102      5095      5098      5101      5103
      5095      5098      5101      5104      5099      5098      5101      5102
      5099      5098      5101      5103      5099      5098      5101      5104
      5100      5098      5101      5102      5100      5098      5101      5103
      5100      5098      5101      5104      5098      5101      5104      5105
      5098      5101      5104      5106      5098      5101      5104      5107
      5102      5101      5104      5105      5102      5101      5104      5106
      5102      5101      5104      5107      5103      5101      5104      5105
      5103      5101      5104      5106      5103      5101      5104      5107
      5101      5104      5107      5108      5101      5104      5107      5109
      5101      5104      5107      5110      5105      5104      5107      5108
      5105      5104      5107      5109      5105      5104      5107      5110
      5106      5104      5107      5108      5106      5104      5107      5109
      5106      5104      5107      5110      5104      5107      5110      5113
      5104      5107      5110      5111      5104      5107      5110      5112
      5108      5107      5110      5113      5108      5107      5110      5111
      5108      5107      5110      5112      5109      5107      5110      5113
      5109      5107      5110      5111      5109      5107      5110      5112
      5114      5113      5110      5107      5115      5113      5110      5107
      5114      5113      5110      5111      5115      5113      5110      5111
      5114      5113      5110      5112      5115      5113      5110      5112
      5110      5113      5115      5116      5114      5113      5115      5116
      5113      5115      5116      5117      5113      5115      5116      5118
      5113      5115      5116      5119      5115      5116      5119      5120
      5115      5116      5119      5121      5115      5116      5119      5148
      5117      5116      5119      5120      5117      5116      5119      5121
      5117      5116      5119      5148      5118      5116      5119      5120
      5118      5116      5119      5121      5118      5116      5119      5148
      5116      5119      5121      5122      5116      5119      5121      5123
      5116      5119      5121      5124      5116      5119      5148      5149
      5120      5119      5121      5122      5120      5119      5121      5123
      5120      5119      5121      5124      5120      5119      5148      5149
      5122      5121      5119      5148      5123      5121      5119      5148
      5124      5121      5119      5148      5121      5119      5148      5149
      5119      5121      5124      5125      5122      5121      5124      5125
      5123      5121      5124      5125      5121      5124      5125      5126
      5121      5124      5125      5146      5121      5124      5125      5147
      5124      5125      5126      5127      5127      5126      5125      5146
      5127      5126      5125      5147      5125      5126      5127      5128
      5125      5126      5127      5129      5125      5126      5127      5130
      5126      5127      5130      5131      5126      5127      5130      5132
      5126      5127      5130      5133      5128      5127      5130      5131
      5128      5127      5130      5132      5128      5127      5130      5133
      5129      5127      5130      5131      5129      5127      5130      5132
      5129      5127      5130      5133      5127      5130      5133      5134
      5127      5130      5133      5138      5127      5130      5133      5142
      5131      5130      5133      5134      5131      5130      5133      5138
      5131      5130      5133      5142      5132      5130      5133      5134
      5132      5130      5133      5138      5132      5130      5133      5142
      5130      5133      5134      5135      5130      5133      5134      5136
      5130      5133      5134      5137      5130      5133      5138      5139
      5130      5133      5138      5140      5130      5133      5138      5141
      5130      5133      5142      5143      5130      5133      5142      5144
      5130      5133      5142      5145      5135      5134      5133      5138
      5136      5134      5133      5138      5137      5134      5133      5138
      5134      5133      5138      5139      5134      5133      5138      5140
      5134      5133      5138      5141      5135      5134      5133      5142
      5136      5134      5133      5142      5137      5134      5133      5142
      5134      5133      5142      5143      5134      5133      5142      5144
      5134      5133      5142      5145      5139      5138      5133      5142
      5140      5138      5133      5142      5141      5138      5133      5142
      5138      5133      5142      5143      5138      5133      5142      5144
      5138      5133      5142      5145      5119      5148      5149      5151
      5119      5148      5149      5150      5152      5151      5149      5148
      5153      5151      5149      5148      5154      5151      5149      5148
      5152      5151      5149      5150      5153      5151      5149      5150
      5154      5151      5149      5150      5149      5151      5154      5155
      5149      5151      5154      5156      5149      5151      5154      5157
      5152      5151      5154      5155      5152      5151      5154      5156
      5152      5151      5154      5157      5153      5151      5154      5155
      5153      5151      5154      5156      5153      5151      5154      5157
      5151      5154      5157      5158      5151      5154      5157      5159
      5151      5154      5157      5160      5155      5154      5157      5158
      5155      5154      5157      5159      5155      5154      5157      5160
      5156      5154      5157      5158      5156      5154      5157      5159
      5156      5154      5157      5160      5154      5157      5160      5161
      5154      5157      5160      5162      5154      5157      5160      5163
      5158      5157      5160      5161      5158      5157      5160      5162
      5158      5157      5160      5163      5159      5157      5160      5161
      5159      5157      5160      5162      5159      5157      5160      5163
      5157      5160      5163      5164      5157      5160      5163      5165
      5157      5160      5163      5166      5161      5160      5163      5164
      5161      5160      5163      5165      5161      5160      5163      5166
      5162      5160      5163      5164      5162      5160      5163      5165
      5162      5160      5163      5166      5160      5163      5166      5167
      5160      5163      5166      5168      5160      5163      5166      5169
      5164      5163      5166      5167      5164      5163      5166      5168
      5164      5163      5166      5169      5165      5163      5166      5167
      5165      5163      5166      5168      5165      5163      5166      5169
      5163      5166      5169      5170      5163      5166      5169      5171
      5163      5166      5169      5172      5167      5166      5169      5170
      5167      5166      5169      5171      5167      5166      5169      5172
      5168      5166      5169      5170      5168      5166      5169      5171
      5168      5166      5169      5172      5166      5169      5172      5173
      5166      5169      5172      5174      5170      5169      5172      5173
      5170      5169      5172      5174      5171      5169      5172      5173
      5171      5169      5172      5174      5169      5172      5174      5175
      5169      5172      5174      5176      5173      5172      5174      5175
      5173      5172      5174      5176      5172      5174      5176      5177
      5172      5174      5176      5178      5172      5174      5176      5179
      5175      5174      5176      5177      5175      5174      5176      5178
      5175      5174      5176      5179      5174      5176      5179      5180
      5174      5176      5179      5181      5174      5176      5179      5182
      5177      5176      5179      5180      5177      5176      5179      5181
      5177      5176      5179      5182      5178      5176      5179      5180
      5178      5176      5179      5181      5178      5176      5179      5182
      5176      5179      5182      5183      5176      5179      5182      5184
      5176      5179      5182      5185      5180      5179      5182      5183
      5180      5179      5182      5184      5180      5179      5182      5185
      5181      5179      5182      5183      5181      5179      5182      5184
      5181      5179      5182      5185      5179      5182      5185      5186
      5179      5182      5185      5187      5179      5182      5185      5188
      5183      5182      5185      5186      5183      5182      5185      5187
      5183      5182      5185      5188      5184      5182      5185      5186
      5184      5182      5185      5187      5184      5182      5185      5188
      5182      5185      5188      5189      5182      5185      5188      5190
      5182      5185      5188      5191      5186      5185      5188      5189
      5186      5185      5188      5190      5186      5185      5188      5191
      5187      5185      5188      5189      5187      5185      5188      5190
      5187      5185      5188      5191      5185      5188      5191      5192
      5185      5188      5191      5193      5185      5188      5191      5194
      5189      5188      5191      5192      5189      5188      5191      5193
      5189      5188      5191      5194      5190      5188      5191      5192
      5190      5188      5191      5193      5190      5188      5191      5194
      5188      5191      5194      5195      5188      5191      5194      5196
      5188      5191      5194      5197      5192      5191      5194      5195
      5192      5191      5194      5196      5192      5191      5194      5197
      5193      5191      5194      5195      5193      5191      5194      5196
      5193      5191      5194      5197      5191      5194      5197      5198
      5191      5194      5197      5199      5191      5194      5197      5200
      5195      5194      5197      5198      5195      5194      5197      5199
      5195      5194      5197      5200      5196      5194      5197      5198
      5196      5194      5197      5199      5196      5194      5197      5200
      5202      5201      5205      5206      5202      5201      5205      5207
      5202      5201      5205      5208      5203      5201      5205      5206
      5203      5201      5205      5207      5203      5201      5205      5208
      5204      5201      5205      5206      5204      5201      5205      5207
      5204      5201      5205      5208      5201      5205      5208      5209
      5201      5205      5208      5210      5201      5205      5208      5211
      5206      5205      5208      5209      5206      5205      5208      5210
      5206      5205      5208      5211      5207      5205      5208      5209
      5207      5205      5208      5210      5207      5205      5208      5211
      5205      5208      5211      5212      5205      5208      5211      5213
      5205      5208      5211      5214      5209      5208      5211      5212
      5209      5208      5211      5213      5209      5208      5211      5214
      5210      5208      5211      5212      5210      5208      5211      5213
      5210      5208      5211      5214      5208      5211      5214      5215
      5208      5211      5214      5216      5208      5211      5214      5217
      5212      5211      5214      5215      5212      5211      5214      5216
      5212      5211      5214      5217      5213      5211      5214      5215
      5213      5211      5214      5216      5213      5211      5214      5217
      5211      5214      5217      5218      5211      5214      5217      5219
      5211      5214      5217      5220      5215      5214      5217      5218
      5215      5214      5217      5219      5215      5214      5217      5220
      5216      5214      5217      5218      5216      5214      5217      5219
      5216      5214      5217      5220      5214      5217      5220      5221
      5214      5217      5220      5222      5214      5217      5220      5223
      5218      5217      5220      5221      5218      5217      5220      5222
      5218      5217      5220      5223      5219      5217      5220      5221
      5219      5217      5220      5222      5219      5217      5220      5223
      5217      5220      5223      5224      5217      5220      5223      5225
      5217      5220      5223      5226      5221      5220      5223      5224
      5221      5220      5223      5225      5221      5220      5223      5226
      5222      5220      5223      5224      5222      5220      5223      5225
      5222      5220      5223      5226      5220      5223      5226      5227
      5220      5223      5226      5228      5220      5223      5226      5229
      5224      5223      5226      5227      5224      5223      5226      5228
      5224      5223      5226      5229      5225      5223      5226      5227
      5225      5223      5226      5228      5225      5223      5226      5229
      5223      5226      5229      5230      5223      5226      5229      5231
      5223      5226      5229      5232      5227      5226      5229      5230
      5227      5226      5229      5231      5227      5226      5229      5232
      5228      5226      5229      5230      5228      5226      5229      5231
      5228      5226      5229      5232      5226      5229      5232      5233
      5226      5229      5232      5234      5226      5229      5232      5235
      5230      5229      5232      5233      5230      5229      5232      5234
      5230      5229      5232      5235      5231      5229      5232      5233
      5231      5229      5232      5234      5231      5229      5232      5235
      5229      5232      5235      5236      5229      5232      5235      5237
      5229      5232      5235      5238      5233      5232      5235      5236
      5233      5232      5235      5237      5233      5232      5235      5238
      5234      5232      5235      5236      5234      5232      5235      5237
      5234      5232      5235      5238      5232      5235      5238      5239
      5232      5235      5238      5240      5232      5235      5238      5241
      5236      5235      5238      5239      5236      5235      5238      5240
      5236      5235      5238      5241      5237      5235      5238      5239
      5237      5235      5238      5240      5237      5235      5238      5241
      5235      5238      5241      5242      5235      5238      5241      5243
      5235      5238      5241      5244      5239      5238      5241      5242
      5239      5238      5241      5243      5239      5238      5241      5244
      5240      5238      5241      5242      5240      5238      5241      5243
      5240      5238      5241      5244      5238      5241      5244      5247
      5238      5241      5244      5245      5238      5241      5244      5246
      5242      5241      5244      5247      5242      5241      5244      5245
      5242      5241      5244      5246      5243      5241      5244      5247
      5243      5241      5244      5245      5243      5241      5244      5246
      5248      5247      5244      5241      5249      5247      5244      5241
      5248      5247      5244      5245      5249      5247      5244      5245
      5248      5247      5244      5246      5249      5247      5244      5246
      5244      5247      5249      5250      5248      5247      5249      5250
      5247      5249      5250      5251      5247      5249      5250      5252
      5247      5249      5250      5253      5249      5250      5253      5254
      5249      5250      5253      5255      5249      5250      5253      5282
      5251      5250      5253      5254      5251      5250      5253      5255
      5251      5250      5253      5282      5252      5250      5253      5254
      5252      5250      5253      5255      5252      5250      5253      5282
      5250      5253      5255      5256      5250      5253      5255      5257
      5250      5253      5255      5258      5250      5253      5282      5283
      5254      5253      5255      5256      5254      5253      5255      5257
      5254      5253      5255      5258      5254      5253      5282      5283
      5256      5255      5253      5282      5257      5255      5253      5282
      5258      5255      5253      5282      5255      5253      5282      5283
      5253      5255      5258      5259      5256      5255      5258      5259
      5257      5255      5258      5259      5255      5258      5259      5260
      5255      5258      5259      5280      5255      5258      5259      5281
      5258      5259      5260      5261      5261      5260      5259      5280
      5261      5260      5259      5281      5259      5260      5261      5262
      5259      5260      5261      5263      5259      5260      5261      5264
      5260      5261      5264      5265      5260      5261      5264      5266
      5260      5261      5264      5267      5262      5261      5264      5265
      5262      5261      5264      5266      5262      5261      5264      5267
      5263      5261      5264      5265      5263      5261      5264      5266
      5263      5261      5264      5267      5261      5264      5267      5268
      5261      5264      5267      5272      5261      5264      5267      5276
      5265      5264      5267      5268      5265      5264      5267      5272
      5265      5264      5267      5276      5266      5264      5267      5268
      5266      5264      5267      5272      5266      5264      5267      5276
      5264      5267      5268      5269      5264      5267      5268      5270
      5264      5267      5268      5271      5264      5267      5272      5273
      5264      5267      5272      5274      5264      5267      5272      5275
      5264      5267      5276      5277      5264      5267      5276      5278
      5264      5267      5276      5279      5269      5268      5267      5272
      5270      5268      5267      5272      5271      5268      5267      5272
      5268      5267      5272      5273      5268      5267      5272      5274
      5268      5267      5272      5275      5269      5268      5267      5276
      5270      5268      5267      5276      5271      5268      5267      5276
      5268      5267      5276      5277      5268      5267      5276      5278
      5268      5267      5276      5279      5273      5272      5267      5276
      5274      5272      5267      5276      5275      5272      5267      5276
      5272      5267      5276      5277      5272      5267      5276      5278
      5272      5267      5276      5279      5253      5282      5283      5285
      5253      5282      5283      5284      5286      5285      5283      5282
      5287      5285      5283      5282      5288      5285      5283      5282
      5286      5285      5283      5284      5287      5285      5283      5284
      5288      5285      5283      5284      5283      5285      5288      5289
      5283      5285      5288      5290      5283      5285      5288      5291
      5286      5285      5288      5289      5286      5285      5288      5290
      5286      5285      5288      5291      5287      5285      5288      5289
      5287      5285      5288      5290      5287      5285      5288      5291
      5285      5288      5291      5292      5285      5288      5291      5293
      5285      5288      5291      5294      5289      5288      5291      5292
      5289      5288      5291      5293      5289      5288      5291      5294
      5290      5288      5291      5292      5290      5288      5291      5293
      5290      5288      5291      5294      5288      5291      5294      5295
      5288      5291      5294      5296      5288      5291      5294      5297
      5292      5291      5294      5295      5292      5291      5294      5296
      5292      5291      5294      5297      5293      5291      5294      5295
      5293      5291      5294      5296      5293      5291      5294      5297
      5291      5294      5297      5298      5291      5294      5297      5299
      5291      5294      5297      5300      5295      5294      5297      5298
      5295      5294      5297      5299      5295      5294      5297      5300
      5296      5294      5297      5298      5296      5294      5297      5299
      5296      5294      5297      5300      5294      5297      5300      5301
      5294      5297      5300      5302      5294      5297      5300      5303
      5298      5297      5300      5301      5298      5297      5300      5302
      5298      5297      5300      5303      5299      5297      5300      5301
      5299      5297      5300      5302      5299      5297      5300      5303
      5297      5300      5303      5304      5297      5300      5303      5305
      5297      5300      5303      5306      5301      5300      5303      5304
      5301      5300      5303      5305      5301      5300      5303      5306
      5302      5300      5303      5304      5302      5300      5303      5305
      5302      5300      5303      5306      5300      5303      5306      5307
      5300      5303      5306      5308      5304      5303      5306      5307
      5304      5303      5306      5308      5305      5303      5306      5307
      5305      5303      5306      5308      5303      5306      5308      5309
      5303      5306      5308      5310      5307      5306      5308      5309
      5307      5306      5308      5310      5306      5308      5310      5311
      5306      5308      5310      5312      5306      5308      5310      5313
      5309      5308      5310      5311      5309      5308      5310      5312
      5309      5308      5310      5313      5308      5310      5313      5314
      5308      5310      5313      5315      5308      5310      5313      5316
      5311      5310      5313      5314      5311      5310      5313      5315
      5311      5310      5313      5316      5312      5310      5313      5314
      5312      5310      5313      5315      5312      5310      5313      5316
      5310      5313      5316      5317      5310      5313      5316      5318
      5310      5313      5316      5319      5314      5313      5316      5317
      5314      5313      5316      5318      5314      5313      5316      5319
      5315      5313      5316      5317      5315      5313      5316      5318
      5315      5313      5316      5319      5313      5316      5319      5320
      5313      5316      5319      5321      5313      5316      5319      5322
      5317      5316      5319      5320      5317      5316      5319      5321
      5317      5316      5319      5322      5318      5316      5319      5320
      5318      5316      5319      5321      5318      5316      5319      5322
      5316      5319      5322      5323      5316      5319      5322      5324
      5316      5319      5322      5325      5320      5319      5322      5323
      5320      5319      5322      5324      5320      5319      5322      5325
      5321      5319      5322      5323      5321      5319      5322      5324
      5321      5319      5322      5325      5319      5322      5325      5326
      5319      5322      5325      5327      5319      5322      5325      5328
      5323      5322      5325      5326      5323      5322      5325      5327
      5323      5322      5325      5328      5324      5322      5325      5326
      5324      5322      5325      5327      5324      5322      5325      5328
      5322      5325      5328      5329      5322      5325      5328      5330
      5322      5325      5328      5331      5326      5325      5328      5329
      5326      5325      5328      5330      5326      5325      5328      5331
      5327      5325      5328      5329      5327      5325      5328      5330
      5327      5325      5328      5331      5325      5328      5331      5332
      5325      5328      5331      5333      5325      5328      5331      5334
      5329      5328      5331      5332      5329      5328      5331      5333
      5329      5328      5331      5334      5330      5328      5331      5332
      5330      5328      5331      5333      5330      5328      5331      5334
      5336      5335      5339      5340      5336      5335      5339      5341
      5336      5335      5339      5342      5337      5335      5339      5340
      5337      5335      5339      5341      5337      5335      5339      5342
      5338      5335      5339      5340      5338      5335      5339      5341
      5338      5335      5339      5342      5335      5339      5342      5343
      5335      5339      5342      5344      5335      5339      5342      5345
      5340      5339      5342      5343      5340      5339      5342      5344
      5340      5339      5342      5345      5341      5339      5342      5343
      5341      5339      5342      5344      5341      5339      5342      5345
      5339      5342      5345      5346      5339      5342      5345      5347
      5339      5342      5345      5348      5343      5342      5345      5346
      5343      5342      5345      5347      5343      5342      5345      5348
      5344      5342      5345      5346      5344      5342      5345      5347
      5344      5342      5345      5348      5342      5345      5348      5349
      5342      5345      5348      5350      5342      5345      5348      5351
      5346      5345      5348      5349      5346      5345      5348      5350
      5346      5345      5348      5351      5347      5345      5348      5349
      5347      5345      5348      5350      5347      5345      5348      5351
      5345      5348      5351      5352      5345      5348      5351      5353
      5345      5348      5351      5354      5349      5348      5351      5352
      5349      5348      5351      5353      5349      5348      5351      5354
      5350      5348      5351      5352      5350      5348      5351      5353
      5350      5348      5351      5354      5348      5351      5354      5355
      5348      5351      5354      5356      5348      5351      5354      5357
      5352      5351      5354      5355      5352      5351      5354      5356
      5352      5351      5354      5357      5353      5351      5354      5355
      5353      5351      5354      5356      5353      5351      5354      5357
      5351      5354      5357      5358      5351      5354      5357      5359
      5351      5354      5357      5360      5355      5354      5357      5358
      5355      5354      5357      5359      5355      5354      5357      5360
      5356      5354      5357      5358      5356      5354      5357      5359
      5356      5354      5357      5360      5354      5357      5360      5361
      5354      5357      5360      5362      5354      5357      5360      5363
      5358      5357      5360      5361      5358      5357      5360      5362
      5358      5357      5360      5363      5359      5357      5360      5361
      5359      5357      5360      5362      5359      5357      5360      5363
      5357      5360      5363      5364      5357      5360      5363      5365
      5357      5360      5363      5366      5361      5360      5363      5364
      5361      5360      5363      5365      5361      5360      5363      5366
      5362      5360      5363      5364      5362      5360      5363      5365
      5362      5360      5363      5366      5360      5363      5366      5367
      5360      5363      5366      5368      5360      5363      5366      5369
      5364      5363      5366      5367      5364      5363      5366      5368
      5364      5363      5366      5369      5365      5363      5366      5367
      5365      5363      5366      5368      5365      5363      5366      5369
      5363      5366      5369      5370      5363      5366      5369      5371
      5363      5366      5369      5372      5367      5366      5369      5370
      5367      5366      5369      5371      5367      5366      5369      5372
      5368      5366      5369      5370      5368      5366      5369      5371
      5368      5366      5369      5372      5366      5369      5372      5373
      5366      5369      5372      5374      5366      5369      5372      5375
      5370      5369      5372      5373      5370      5369      5372      5374
      5370      5369      5372      5375      5371      5369      5372      5373
      5371      5369      5372      5374      5371      5369      5372      5375
      5369      5372      5375      5376      5369      5372      5375      5377
      5369      5372      5375      5378      5373      5372      5375      5376
      5373      5372      5375      5377      5373      5372      5375      5378
      5374      5372      5375      5376      5374      5372      5375      5377
      5374      5372      5375      5378      5372      5375      5378      5381
      5372      5375      5378      5379      5372      5375      5378      5380
      5376      5375      5378      5381      5376      5375      5378      5379
      5376      5375      5378      5380      5377      5375      5378      5381
      5377      5375      5378      5379      5377      5375      5378      5380
      5382      5381      5378      5375      5383      5381      5378      5375
      5382      5381      5378      5379      5383      5381      5378      5379
      5382      5381      5378      5380      5383      5381      5378      5380
      5378      5381      5383      5384      5382      5381      5383      5384
      5381      5383      5384      5385      5381      5383      5384      5386
      5381      5383      5384      5387      5383      5384      5387      5388
      5383      5384      5387      5389      5383      5384      5387      5416
      5385      5384      5387      5388      5385      5384      5387      5389
      5385      5384      5387      5416      5386      5384      5387      5388
      5386      5384      5387      5389      5386      5384      5387      5416
      5384      5387      5389      5390      5384      5387      5389      5391
      5384      5387      5389      5392      5384      5387      5416      5417
      5388      5387      5389      5390      5388      5387      5389      5391
      5388      5387      5389      5392      5388      5387      5416      5417
      5390      5389      5387      5416      5391      5389      5387      5416
      5392      5389      5387      5416      5389      5387      5416      5417
      5387      5389      5392      5393      5390      5389      5392      5393
      5391      5389      5392      5393      5389      5392      5393      5394
      5389      5392      5393      5414      5389      5392      5393      5415
      5392      5393      5394      5395      5395      5394      5393      5414
      5395      5394      5393      5415      5393      5394      5395      5396
      5393      5394      5395      5397      5393      5394      5395      5398
      5394      5395      5398      5399      5394      5395      5398      5400
      5394      5395      5398      5401      5396      5395      5398      5399
      5396      5395      5398      5400      5396      5395      5398      5401
      5397      5395      5398      5399      5397      5395      5398      5400
      5397      5395      5398      5401      5395      5398      5401      5402
      5395      5398      5401      5406      5395      5398      5401      5410
      5399      5398      5401      5402      5399      5398      5401      5406
      5399      5398      5401      5410      5400      5398      5401      5402
      5400      5398      5401      5406      5400      5398      5401      5410
      5398      5401      5402      5403      5398      5401      5402      5404
      5398      5401      5402      5405      5398      5401      5406      5407
      5398      5401      5406      5408      5398      5401      5406      5409
      5398      5401      5410      5411      5398      5401      5410      5412
      5398      5401      5410      5413      5403      5402      5401      5406
      5404      5402      5401      5406      5405      5402      5401      5406
      5402      5401      5406      5407      5402      5401      5406      5408
      5402      5401      5406      5409      5403      5402      5401      5410
      5404      5402      5401      5410      5405      5402      5401      5410
      5402      5401      5410      5411      5402      5401      5410      5412
      5402      5401      5410      5413      5407      5406      5401      5410
      5408      5406      5401      5410      5409      5406      5401      5410
      5406      5401      5410      5411      5406      5401      5410      5412
      5406      5401      5410      5413      5387      5416      5417      5419
      5387      5416      5417      5418      5420      5419      5417      5416
      5421      5419      5417      5416      5422      5419      5417      5416
      5420      5419      5417      5418      5421      5419      5417      5418
      5422      5419      5417      5418      5417      5419      5422      5423
      5417      5419      5422      5424      5417      5419      5422      5425
      5420      5419      5422      5423      5420      5419      5422      5424
      5420      5419      5422      5425      5421      5419      5422      5423
      5421      5419      5422      5424      5421      5419      5422      5425
      5419      5422      5425      5426      5419      5422      5425      5427
      5419      5422      5425      5428      5423      5422      5425      5426
      5423      5422      5425      5427      5423      5422      5425      5428
      5424      5422      5425      5426      5424      5422      5425      5427
      5424      5422      5425      5428      5422      5425      5428      5429
      5422      5425      5428      5430      5422      5425      5428      5431
      5426      5425      5428      5429      5426      5425      5428      5430
      5426      5425      5428      5431      5427      5425      5428      5429
      5427      5425      5428      5430      5427      5425      5428      5431
      5425      5428      5431      5432      5425      5428      5431      5433
      5425      5428      5431      5434      5429      5428      5431      5432
      5429      5428      5431      5433      5429      5428      5431      5434
      5430      5428      5431      5432      5430      5428      5431      5433
      5430      5428      5431      5434      5428      5431      5434      5435
      5428      5431      5434      5436      5428      5431      5434      5437
      5432      5431      5434      5435      5432      5431      5434      5436
      5432      5431      5434      5437      5433      5431      5434      5435
      5433      5431      5434      5436      5433      5431      5434      5437
      5431      5434      5437      5438      5431      5434      5437      5439
      5431      5434      5437      5440      5435      5434      5437      5438
      5435      5434      5437      5439      5435      5434      5437      5440
      5436      5434      5437      5438      5436      5434      5437      5439
      5436      5434      5437      5440      5434      5437      5440      5441
      5434      5437      5440      5442      5438      5437      5440      5441
      5438      5437      5440      5442      5439      5437      5440      5441
      5439      5437      5440      5442      5437      5440      5442      5443
      5437      5440      5442      5444      5441      5440      5442      5443
      5441      5440      5442      5444      5440      5442      5444      5445
      5440      5442      5444      5446      5440      5442      5444      5447
      5443      5442      5444      5445      5443      5442      5444      5446
      5443      5442      5444      5447      5442      5444      5447      5448
      5442      5444      5447      5449      5442      5444      5447      5450
      5445      5444      5447      5448      5445      5444      5447      5449
      5445      5444      5447      5450      5446      5444      5447      5448
      5446      5444      5447      5449      5446      5444      5447      5450
      5444      5447      5450      5451      5444      5447      5450      5452
      5444      5447      5450      5453      5448      5447      5450      5451
      5448      5447      5450      5452      5448      5447      5450      5453
      5449      5447      5450      5451      5449      5447      5450      5452
      5449      5447      5450      5453      5447      5450      5453      5454
      5447      5450      5453      5455      5447      5450      5453      5456
      5451      5450      5453      5454      5451      5450      5453      5455
      5451      5450      5453      5456      5452      5450      5453      5454
      5452      5450      5453      5455      5452      5450      5453      5456
      5450      5453      5456      5457      5450      5453      5456      5458
      5450      5453      5456      5459      5454      5453      5456      5457
      5454      5453      5456      5458      5454      5453      5456      5459
      5455      5453      5456      5457      5455      5453      5456      5458
      5455      5453      5456      5459      5453      5456      5459      5460
      5453      5456      5459      5461      5453      5456      5459      5462
      5457      5456      5459      5460      5457      5456      5459      5461
      5457      5456      5459      5462      5458      5456      5459      5460
      5458      5456      5459      5461      5458      5456      5459      5462
      5456      5459      5462      5463      5456      5459      5462      5464
      5456      5459      5462      5465      5460      5459      5462      5463
      5460      5459      5462      5464      5460      5459      5462      5465
      5461      5459      5462      5463      5461      5459      5462      5464
      5461      5459      5462      5465      5459      5462      5465      5466
      5459      5462      5465      5467      5459      5462      5465      5468
      5463      5462      5465      5466      5463      5462      5465      5467
      5463      5462      5465      5468      5464      5462      5465      5466
      5464      5462      5465      5467      5464      5462      5465      5468
      5470      5469      5473      5474      5470      5469      5473      5475
      5470      5469      5473      5476      5471      5469      5473      5474
      5471      5469      5473      5475      5471      5469      5473      5476
      5472      5469      5473      5474      5472      5469      5473      5475
      5472      5469      5473      5476      5469      5473      5476      5477
      5469      5473      5476      5478      5469      5473      5476      5479
      5474      5473      5476      5477      5474      5473      5476      5478
      5474      5473      5476      5479      5475      5473      5476      5477
      5475      5473      5476      5478      5475      5473      5476      5479
      5473      5476      5479      5480      5473      5476      5479      5481
      5473      5476      5479      5482      5477      5476      5479      5480
      5477      5476      5479      5481      5477      5476      5479      5482
      5478      5476      5479      5480      5478      5476      5479      5481
      5478      5476      5479      5482      5476      5479      5482      5483
      5476      5479      5482      5484      5476      5479      5482      5485
      5480      5479      5482      5483      5480      5479      5482      5484
      5480      5479      5482      5485      5481      5479      5482      5483
      5481      5479      5482      5484      5481      5479      5482      5485
      5479      5482      5485      5486      5479      5482      5485      5487
      5479      5482      5485      5488      5483      5482      5485      5486
      5483      5482      5485      5487      5483      5482      5485      5488
      5484      5482      5485      5486      5484      5482      5485      5487
      5484      5482      5485      5488      5482      5485      5488      5489
      5482      5485      5488      5490      5482      5485      5488      5491
      5486      5485      5488      5489      5486      5485      5488      5490
      5486      5485      5488      5491      5487      5485      5488      5489
      5487      5485      5488      5490      5487      5485      5488      5491
      5485      5488      5491      5492      5485      5488      5491      5493
      5485      5488      5491      5494      5489      5488      5491      5492
      5489      5488      5491      5493      5489      5488      5491      5494
      5490      5488      5491      5492      5490      5488      5491      5493
      5490      5488      5491      5494      5488      5491      5494      5495
      5488      5491      5494      5496      5488      5491      5494      5497
      5492      5491      5494      5495      5492      5491      5494      5496
      5492      5491      5494      5497      5493      5491      5494      5495
      5493      5491      5494      5496      5493      5491      5494      5497
      5491      5494      5497      5498      5491      5494      5497      5499
      5491      5494      5497      5500      5495      5494      5497      5498
      5495      5494      5497      5499      5495      5494      5497      5500
      5496      5494      5497      5498      5496      5494      5497      5499
      5496      5494      5497      5500      5494      5497      5500      5501
      5494      5497      5500      5502      5494      5497      5500      5503
      5498      5497      5500      5501      5498      5497      5500      5502
      5498      5497      5500      5503      5499      5497      5500      5501
      5499      5497      5500      5502      5499      5497      5500      5503
      5497      5500      5503      5504      5497      5500      5503      5505
      5497      5500      5503      5506      5501      5500      5503      5504
      5501      5500      5503      5505      5501      5500      5503      5506
      5502      5500      5503      5504      5502      5500      5503      5505
      5502      5500      5503      5506      5500      5503      5506      5507
      5500      5503      5506      5508      5500      5503      5506      5509
      5504      5503      5506      5507      5504      5503      5506      5508
      5504      5503      5506      5509      5505      5503      5506      5507
      5505      5503      5506      5508      5505      5503      5506      5509
      5503      5506      5509      5510      5503      5506      5509      5511
      5503      5506      5509      5512      5507      5506      5509      5510
      5507      5506      5509      5511      5507      5506      5509      5512
      5508      5506      5509      5510      5508      5506      5509      5511
      5508      5506      5509      5512      5506      5509      5512      5515
      5506      5509      5512      5513      5506      5509      5512      5514
      5510      5509      5512      5515      5510      5509      5512      5513
      5510      5509      5512      5514      5511      5509      5512      5515
      5511      5509      5512      5513      5511      5509      5512      5514
      5516      5515      5512      5509      5517      5515      5512      5509
      5516      5515      5512      5513      5517      5515      5512      5513
      5516      5515      5512      5514      5517      5515      5512      5514
      5512      5515      5517      5518      5516      5515      5517      5518
      5515      5517      5518      5519      5515      5517      5518      5520
      5515      5517      5518      5521      5517      5518      5521      5522
      5517      5518      5521      5523      5517      5518      5521      5550
      5519      5518      5521      5522      5519      5518      5521      5523
      5519      5518      5521      5550      5520      5518      5521      5522
      5520      5518      5521      5523      5520      5518      5521      5550
      5518      5521      5523      5524      5518      5521      5523      5525
      5518      5521      5523      5526      5518      5521      5550      5551
      5522      5521      5523      5524      5522      5521      5523      5525
      5522      5521      5523      5526      5522      5521      5550      5551
      5524      5523      5521      5550      5525      5523      5521      5550
      5526      5523      5521      5550      5523      5521      5550      5551
      5521      5523      5526      5527      5524      5523      5526      5527
      5525      5523      5526      5527      5523      5526      5527      5528
      5523      5526      5527      5548      5523      5526      5527      5549
      5526      5527      5528      5529      5529      5528      5527      5548
      5529      5528      5527      5549      5527      5528      5529      5530
      5527      5528      5529      5531      5527      5528      5529      5532
      5528      5529      5532      5533      5528      5529      5532      5534
      5528      5529      5532      5535      5530      5529      5532      5533
      5530      5529      5532      5534      5530      5529      5532      5535
      5531      5529      5532      5533      5531      5529      5532      5534
      5531      5529      5532      5535      5529      5532      5535      5536
      5529      5532      5535      5540      5529      5532      5535      5544
      5533      5532      5535      5536      5533      5532      5535      5540
      5533      5532      5535      5544      5534      5532      5535      5536
      5534      5532      5535      5540      5534      5532      5535      5544
      5532      5535      5536      5537      5532      5535      5536      5538
      5532      5535      5536      5539      5532      5535      5540      5541
      5532      5535      5540      5542      5532      5535      5540      5543
      5532      5535      5544      5545      5532      5535      5544      5546
      5532      5535      5544      5547      5537      5536      5535      5540
      5538      5536      5535      5540      5539      5536      5535      5540
      5536      5535      5540      5541      5536      5535      5540      5542
      5536      5535      5540      5543      5537      5536      5535      5544
      5538      5536      5535      5544      5539      5536      5535      5544
      5536      5535      5544      5545      5536      5535      5544      5546
      5536      5535      5544      5547      5541      5540      5535      5544
      5542      5540      5535      5544      5543      5540      5535      5544
      5540      5535      5544      5545      5540      5535      5544      5546
      5540      5535      5544      5547      5521      5550      5551      5553
      5521      5550      5551      5552      5554      5553      5551      5550
      5555      5553      5551      5550      5556      5553      5551      5550
      5554      5553      5551      5552      5555      5553      5551      5552
      5556      5553      5551      5552      5551      5553      5556      5557
      5551      5553      5556      5558      5551      5553      5556      5559
      5554      5553      5556      5557      5554      5553      5556      5558
      5554      5553      5556      5559      5555      5553      5556      5557
      5555      5553      5556      5558      5555      5553      5556      5559
      5553      5556      5559      5560      5553      5556      5559      5561
      5553      5556      5559      5562      5557      5556      5559      5560
      5557      5556      5559      5561      5557      5556      5559      5562
      5558      5556      5559      5560      5558      5556      5559      5561
      5558      5556      5559      5562      5556      5559      5562      5563
      5556      5559      5562      5564      5556      5559      5562      5565
      5560      5559      5562      5563      5560      5559      5562      5564
      5560      5559      5562      5565      5561      5559      5562      5563
      5561      5559      5562      5564      5561      5559      5562      5565
      5559      5562      5565      5566      5559      5562      5565      5567
      5559      5562      5565      5568      5563      5562      5565      5566
      5563      5562      5565      5567      5563      5562      5565      5568
      5564      5562      5565      5566      5564      5562      5565      5567
      5564      5562      5565      5568      5562      5565      5568      5569
      5562      5565      5568      5570      5562      5565      5568      5571
      5566      5565      5568      5569      5566      5565      5568      5570
      5566      5565      5568      5571      5567      5565      5568      5569
      5567      5565      5568      5570      5567      5565      5568      5571
      5565      5568      5571      5572      5565      5568      5571      5573
      5565      5568      5571      5574      5569      5568      5571      5572
      5569      5568      5571      5573      5569      5568      5571      5574
      5570      5568      5571      5572      5570      5568      5571      5573
      5570      5568      5571      5574      5568      5571      5574      5575
      5568      5571      5574      5576      5572      5571      5574      5575
      5572      5571      5574      5576      5573      5571      5574      5575
      5573      5571      5574      5576      5571      5574      5576      5577
      5571      5574      5576      5578      5575      5574      5576      5577
      5575      5574      5576      5578      5574      5576      5578      5579
      5574      5576      5578      5580      5574      5576      5578      5581
      5577      5576      5578      5579      5577      5576      5578      5580
      5577      5576      5578      5581      5576      5578      5581      5582
      5576      5578      5581      5583      5576      5578      5581      5584
      5579      5578      5581      5582      5579      5578      5581      5583
      5579      5578      5581      5584      5580      5578      5581      5582
      5580      5578      5581      5583      5580      5578      5581      5584
      5578      5581      5584      5585      5578      5581      5584      5586
      5578      5581      5584      5587      5582      5581      5584      5585
      5582      5581      5584      5586      5582      5581      5584      5587
      5583      5581      5584      5585      5583      5581      5584      5586
      5583      5581      5584      5587      5581      5584      5587      5588
      5581      5584      5587      5589      5581      5584      5587      5590
      5585      5584      5587      5588      5585      5584      5587      5589
      5585      5584      5587      5590      5586      5584      5587      5588
      5586      5584      5587      5589      5586      5584      5587      5590
      5584      5587      5590      5591      5584      5587      5590      5592
      5584      5587      5590      5593      5588      5587      5590      5591
      5588      5587      5590      5592      5588      5587      5590      5593
      5589      5587      5590      5591      5589      5587      5590      5592
      5589      5587      5590      5593      5587      5590      5593      5594
      5587      5590      5593      5595      5587      5590      5593      5596
      5591      5590      5593      5594      5591      5590      5593      5595
      5591      5590      5593      5596      5592      5590      5593      5594
      5592      5590      5593      5595      5592      5590      5593      5596
      5590      5593      5596      5597      5590      5593      5596      5598
      5590      5593      5596      5599      5594      5593      5596      5597
      5594      5593      5596      5598      5594      5593      5596      5599
      5595      5593      5596      5597      5595      5593      5596      5598
      5595      5593      5596      5599      5593      5596      5599      5600
      5593      5596      5599      5601      5593      5596      5599      5602
      5597      5596      5599      5600      5597      5596      5599      5601
      5597      5596      5599      5602      5598      5596      5599      5600
      5598      5596      5599      5601      5598      5596      5599      5602
      5604      5603      5607      5608      5604      5603      5607      5609
      5604      5603      5607      5610      5605      5603      5607      5608
      5605      5603      5607      5609      5605      5603      5607      5610
      5606      5603      5607      5608      5606      5603      5607      5609
      5606      5603      5607      5610      5603      5607      5610      5611
      5603      5607      5610      5612      5603      5607      5610      5613
      5608      5607      5610      5611      5608      5607      5610      5612
      5608      5607      5610      5613      5609      5607      5610      5611
      5609      5607      5610      5612      5609      5607      5610      5613
      5607      5610      5613      5614      5607      5610      5613      5615
      5607      5610      5613      5616      5611      5610      5613      5614
      5611      5610      5613      5615      5611      5610      5613      5616
      5612      5610      5613      5614      5612      5610      5613      5615
      5612      5610      5613      5616      5610      5613      5616      5617
      5610      5613      5616      5618      5610      5613      5616      5619
      5614      5613      5616      5617      5614      5613      5616      5618
      5614      5613      5616      5619      5615      5613      5616      5617
      5615      5613      5616      5618      5615      5613      5616      5619
      5613      5616      5619      5620      5613      5616      5619      5621
      5613      5616      5619      5622      5617      5616      5619      5620
      5617      5616      5619      5621      5617      5616      5619      5622
      5618      5616      5619      5620      5618      5616      5619      5621
      5618      5616      5619      5622      5616      5619      5622      5623
      5616      5619      5622      5624      5616      5619      5622      5625
      5620      5619      5622      5623      5620      5619      5622      5624
      5620      5619      5622      5625      5621      5619      5622      5623
      5621      5619      5622      5624      5621      5619      5622      5625
      5619      5622      5625      5626      5619      5622      5625      5627
      5619      5622      5625      5628      5623      5622      5625      5626
      5623      5622      5625      5627      5623      5622      5625      5628
      5624      5622      5625      5626      5624      5622      5625      5627
      5624      5622      5625      5628      5622      5625      5628      5629
      5622      5625      5628      5630      5622      5625      5628      5631
      5626      5625      5628      5629      5626      5625      5628      5630
      5626      5625      5628      5631      5627      5625      5628      5629
      5627      5625      5628      5630      5627      5625      5628      5631
      5625      5628      5631      5632      5625      5628      5631      5633
      5625      5628      5631      5634      5629      5628      5631      5632
      5629      5628      5631      5633      5629      5628      5631      5634
      5630      5628      5631      5632      5630      5628      5631      5633
      5630      5628      5631      5634      5628      5631      5634      5635
      5628      5631      5634      5636      5628      5631      5634      5637
      5632      5631      5634      5635      5632      5631      5634      5636
      5632      5631      5634      5637      5633      5631      5634      5635
      5633      5631      5634      5636      5633      5631      5634      5637
      5631      5634      5637      5638      5631      5634      5637      5639
      5631      5634      5637      5640      5635      5634      5637      5638
      5635      5634      5637      5639      5635      5634      5637      5640
      5636      5634      5637      5638      5636      5634      5637      5639
      5636      5634      5637      5640      5634      5637      5640      5641
      5634      5637      5640      5642      5634      5637      5640      5643
      5638      5637      5640      5641      5638      5637      5640      5642
      5638      5637      5640      5643      5639      5637      5640      5641
      5639      5637      5640      5642      5639      5637      5640      5643
      5637      5640      5643      5644      5637      5640      5643      5645
      5637      5640      5643      5646      5641      5640      5643      5644
      5641      5640      5643      5645      5641      5640      5643      5646
      5642      5640      5643      5644      5642      5640      5643      5645
      5642      5640      5643      5646      5640      5643      5646      5649
      5640      5643      5646      5647      5640      5643      5646      5648
      5644      5643      5646      5649      5644      5643      5646      5647
      5644      5643      5646      5648      5645      5643      5646      5649
      5645      5643      5646      5647      5645      5643      5646      5648
      5650      5649      5646      5643      5651      5649      5646      5643
      5650      5649      5646      5647      5651      5649      5646      5647
      5650      5649      5646      5648      5651      5649      5646      5648
      5646      5649      5651      5652      5650      5649      5651      5652
      5649      5651      5652      5653      5649      5651      5652      5654
      5649      5651      5652      5655      5651      5652      5655      5656
      5651      5652      5655      5657      5651      5652      5655      5684
      5653      5652      5655      5656      5653      5652      5655      5657
      5653      5652      5655      5684      5654      5652      5655      5656
      5654      5652      5655      5657      5654      5652      5655      5684
      5652      5655      5657      5658      5652      5655      5657      5659
      5652      5655      5657      5660      5652      5655      5684      5685
      5656      5655      5657      5658      5656      5655      5657      5659
      5656      5655      5657      5660      5656      5655      5684      5685
      5658      5657      5655      5684      5659      5657      5655      5684
      5660      5657      5655      5684      5657      5655      5684      5685
      5655      5657      5660      5661      5658      5657      5660      5661
      5659      5657      5660      5661      5657      5660      5661      5662
      5657      5660      5661      5682      5657      5660      5661      5683
      5660      5661      5662      5663      5663      5662      5661      5682
      5663      5662      5661      5683      5661      5662      5663      5664
      5661      5662      5663      5665      5661      5662      5663      5666
      5662      5663      5666      5667      5662      5663      5666      5668
      5662      5663      5666      5669      5664      5663      5666      5667
      5664      5663      5666      5668      5664      5663      5666      5669
      5665      5663      5666      5667      5665      5663      5666      5668
      5665      5663      5666      5669      5663      5666      5669      5670
      5663      5666      5669      5674      5663      5666      5669      5678
      5667      5666      5669      5670      5667      5666      5669      5674
      5667      5666      5669      5678      5668      5666      5669      5670
      5668      5666      5669      5674      5668      5666      5669      5678
      5666      5669      5670      5671      5666      5669      5670      5672
      5666      5669      5670      5673      5666      5669      5674      5675
      5666      5669      5674      5676      5666      5669      5674      5677
      5666      5669      5678      5679      5666      5669      5678      5680
      5666      5669      5678      5681      5671      5670      5669      5674
      5672      5670      5669      5674      5673      5670      5669      5674
      5670      5669      5674      5675      5670      5669      5674      5676
      5670      5669      5674      5677      5671      5670      5669      5678
      5672      5670      5669      5678      5673      5670      5669      5678
      5670      5669      5678      5679      5670      5669      5678      5680
      5670      5669      5678      5681      5675      5674      5669      5678
      5676      5674      5669      5678      5677      5674      5669      5678
      5674      5669      5678      5679      5674      5669      5678      5680
      5674      5669      5678      5681      5655      5684      5685      5687
      5655      5684      5685      5686      5688      5687      5685      5684
      5689      5687      5685      5684      5690      5687      5685      5684
      5688      5687      5685      5686      5689      5687      5685      5686
      5690      5687      5685      5686      5685      5687      5690      5691
      5685      5687      5690      5692      5685      5687      5690      5693
      5688      5687      5690      5691      5688      5687      5690      5692
      5688      5687      5690      5693      5689      5687      5690      5691
      5689      5687      5690      5692      5689      5687      5690      5693
      5687      5690      5693      5694      5687      5690      5693      5695
      5687      5690      5693      5696      5691      5690      5693      5694
      5691      5690      5693      5695      5691      5690      5693      5696
      5692      5690      5693      5694      5692      5690      5693      5695
      5692      5690      5693      5696      5690      5693      5696      5697
      5690      5693      5696      5698      5690      5693      5696      5699
      5694      5693      5696      5697      5694      5693      5696      5698
      5694      5693      5696      5699      5695      5693      5696      5697
      5695      5693      5696      5698      5695      5693      5696      5699
      5693      5696      5699      5700      5693      5696      5699      5701
      5693      5696      5699      5702      5697      5696      5699      5700
      5697      5696      5699      5701      5697      5696      5699      5702
      5698      5696      5699      5700      5698      5696      5699      5701
      5698      5696      5699      5702      5696      5699      5702      5703
      5696      5699      5702      5704      5696      5699      5702      5705
      5700      5699      5702      5703      5700      5699      5702      5704
      5700      5699      5702      5705      5701      5699      5702      5703
      5701      5699      5702      5704      5701      5699      5702      5705
      5699      5702      5705      5706      5699      5702      5705      5707
      5699      5702      5705      5708      5703      5702      5705      5706
      5703      5702      5705      5707      5703      5702      5705      5708
      5704      5702      5705      5706      5704      5702      5705      5707
      5704      5702      5705      5708      5702      5705      5708      5709
      5702      5705      5708      5710      5706      5705      5708      5709
      5706      5705      5708      5710      5707      5705      5708      5709
      5707      5705      5708      5710      5705      5708      5710      5711
      5705      5708      5710      5712      5709      5708      5710      5711
      5709      5708      5710      5712      5708      5710      5712      5713
      5708      5710      5712      5714      5708      5710      5712      5715
      5711      5710      5712      5713      5711      5710      5712      5714
      5711      5710      5712      5715      5710      5712      5715      5716
      5710      5712      5715      5717      5710      5712      5715      5718
      5713      5712      5715      5716      5713      5712      5715      5717
      5713      5712      5715      5718      5714      5712      5715      5716
      5714      5712      5715      5717      5714      5712      5715      5718
      5712      5715      5718      5719      5712      5715      5718      5720
      5712      5715      5718      5721      5716      5715      5718      5719
      5716      5715      5718      5720      5716      5715      5718      5721
      5717      5715      5718      5719      5717      5715      5718      5720
      5717      5715      5718      5721      5715      5718      5721      5722
      5715      5718      5721      5723      5715      5718      5721      5724
      5719      5718      5721      5722      5719      5718      5721      5723
      5719      5718      5721      5724      5720      5718      5721      5722
      5720      5718      5721      5723      5720      5718      5721      5724
      5718      5721      5724      5725      5718      5721      5724      5726
      5718      5721      5724      5727      5722      5721      5724      5725
      5722      5721      5724      5726      5722      5721      5724      5727
      5723      5721      5724      5725      5723      5721      5724      5726
      5723      5721      5724      5727      5721      5724      5727      5728
      5721      5724      5727      5729      5721      5724      5727      5730
      5725      5724      5727      5728      5725      5724      5727      5729
      5725      5724      5727      5730      5726      5724      5727      5728
      5726      5724      5727      5729      5726      5724      5727      5730
      5724      5727      5730      5731      5724      5727      5730      5732
      5724      5727      5730      5733      5728      5727      5730      5731
      5728      5727      5730      5732      5728      5727      5730      5733
      5729      5727      5730      5731      5729      5727      5730      5732
      5729      5727      5730      5733      5727      5730      5733      5734
      5727      5730      5733      5735      5727      5730      5733      5736
      5731      5730      5733      5734      5731      5730      5733      5735
      5731      5730      5733      5736      5732      5730      5733      5734
      5732      5730      5733      5735      5732      5730      5733      5736
      5738      5737      5741      5742      5738      5737      5741      5743
      5738      5737      5741      5744      5739      5737      5741      5742
      5739      5737      5741      5743      5739      5737      5741      5744
      5740      5737      5741      5742      5740      5737      5741      5743
      5740      5737      5741      5744      5737      5741      5744      5745
      5737      5741      5744      5746      5737      5741      5744      5747
      5742      5741      5744      5745      5742      5741      5744      5746
      5742      5741      5744      5747      5743      5741      5744      5745
      5743      5741      5744      5746      5743      5741      5744      5747
      5741      5744      5747      5748      5741      5744      5747      5749
      5741      5744      5747      5750      5745      5744      5747      5748
      5745      5744      5747      5749      5745      5744      5747      5750
      5746      5744      5747      5748      5746      5744      5747      5749
      5746      5744      5747      5750      5744      5747      5750      5751
      5744      5747      5750      5752      5744      5747      5750      5753
      5748      5747      5750      5751      5748      5747      5750      5752
      5748      5747      5750      5753      5749      5747      5750      5751
      5749      5747      5750      5752      5749      5747      5750      5753
      5747      5750      5753      5754      5747      5750      5753      5755
      5747      5750      5753      5756      5751      5750      5753      5754
      5751      5750      5753      5755      5751      5750      5753      5756
      5752      5750      5753      5754      5752      5750      5753      5755
      5752      5750      5753      5756      5750      5753      5756      5757
      5750      5753      5756      5758      5750      5753      5756      5759
      5754      5753      5756      5757      5754      5753      5756      5758
      5754      5753      5756      5759      5755      5753      5756      5757
      5755      5753      5756      5758      5755      5753      5756      5759
      5753      5756      5759      5760      5753      5756      5759      5761
      5753      5756      5759      5762      5757      5756      5759      5760
      5757      5756      5759      5761      5757      5756      5759      5762
      5758      5756      5759      5760      5758      5756      5759      5761
      5758      5756      5759      5762      5756      5759      5762      5763
      5756      5759      5762      5764      5756      5759      5762      5765
      5760      5759      5762      5763      5760      5759      5762      5764
      5760      5759      5762      5765      5761      5759      5762      5763
      5761      5759      5762      5764      5761      5759      5762      5765
      5759      5762      5765      5766      5759      5762      5765      5767
      5759      5762      5765      5768      5763      5762      5765      5766
      5763      5762      5765      5767      5763      5762      5765      5768
      5764      5762      5765      5766      5764      5762      5765      5767
      5764      5762      5765      5768      5762      5765      5768      5769
      5762      5765      5768      5770      5762      5765      5768      5771
      5766      5765      5768      5769      5766      5765      5768      5770
      5766      5765      5768      5771      5767      5765      5768      5769
      5767      5765      5768      5770      5767      5765      5768      5771
      5765      5768      5771      5772      5765      5768      5771      5773
      5765      5768      5771      5774      5769      5768      5771      5772
      5769      5768      5771      5773      5769      5768      5771      5774
      5770      5768      5771      5772      5770      5768      5771      5773
      5770      5768      5771      5774      5768      5771      5774      5775
      5768      5771      5774      5776      5768      5771      5774      5777
      5772      5771      5774      5775      5772      5771      5774      5776
      5772      5771      5774      5777      5773      5771      5774      5775
      5773      5771      5774      5776      5773      5771      5774      5777
      5771      5774      5777      5778      5771      5774      5777      5779
      5771      5774      5777      5780      5775      5774      5777      5778
      5775      5774      5777      5779      5775      5774      5777      5780
      5776      5774      5777      5778      5776      5774      5777      5779
      5776      5774      5777      5780      5774      5777      5780      5783
      5774      5777      5780      5781      5774      5777      5780      5782
      5778      5777      5780      5783      5778      5777      5780      5781
      5778      5777      5780      5782      5779      5777      5780      5783
      5779      5777      5780      5781      5779      5777      5780      5782
      5784      5783      5780      5777      5785      5783      5780      5777
      5784      5783      5780      5781      5785      5783      5780      5781
      5784      5783      5780      5782      5785      5783      5780      5782
      5780      5783      5785      5786      5784      5783      5785      5786
      5783      5785      5786      5787      5783      5785      5786      5788
      5783      5785      5786      5789      5785      5786      5789      5790
      5785      5786      5789      5791      5785      5786      5789      5818
      5787      5786      5789      5790      5787      5786      5789      5791
      5787      5786      5789      5818      5788      5786      5789      5790
      5788      5786      5789      5791      5788      5786      5789      5818
      5786      5789      5791      5792      5786      5789      5791      5793
      5786      5789      5791      5794      5786      5789      5818      5819
      5790      5789      5791      5792      5790      5789      5791      5793
      5790      5789      5791      5794      5790      5789      5818      5819
      5792      5791      5789      5818      5793      5791      5789      5818
      5794      5791      5789      5818      5791      5789      5818      5819
      5789      5791      5794      5795      5792      5791      5794      5795
      5793      5791      5794      5795      5791      5794      5795      5796
      5791      5794      5795      5816      5791      5794      5795      5817
      5794      5795      5796      5797      5797      5796      5795      5816
      5797      5796      5795      5817      5795      5796      5797      5798
      5795      5796      5797      5799      5795      5796      5797      5800
      5796      5797      5800      5801      5796      5797      5800      5802
      5796      5797      5800      5803      5798      5797      5800      5801
      5798      5797      5800      5802      5798      5797      5800      5803
      5799      5797      5800      5801      5799      5797      5800      5802
      5799      5797      5800      5803      5797      5800      5803      5804
      5797      5800      5803      5808      5797      5800      5803      5812
      5801      5800      5803      5804      5801      5800      5803      5808
      5801      5800      5803      5812      5802      5800      5803      5804
      5802      5800      5803      5808      5802      5800      5803      5812
      5800      5803      5804      5805      5800      5803      5804      5806
      5800      5803      5804      5807      5800      5803      5808      5809
      5800      5803      5808      5810      5800      5803      5808      5811
      5800      5803      5812      5813      5800      5803      5812      5814
      5800      5803      5812      5815      5805      5804      5803      5808
      5806      5804      5803      5808      5807      5804      5803      5808
      5804      5803      5808      5809      5804      5803      5808      5810
      5804      5803      5808      5811      5805      5804      5803      5812
      5806      5804      5803      5812      5807      5804      5803      5812
      5804      5803      5812      5813      5804      5803      5812      5814
      5804      5803      5812      5815      5809      5808      5803      5812
      5810      5808      5803      5812      5811      5808      5803      5812
      5808      5803      5812      5813      5808      5803      5812      5814
      5808      5803      5812      5815      5789      5818      5819      5821
      5789      5818      5819      5820      5822      5821      5819      5818
      5823      5821      5819      5818      5824      5821      5819      5818
      5822      5821      5819      5820      5823      5821      5819      5820
      5824      5821      5819      5820      5819      5821      5824      5825
      5819      5821      5824      5826      5819      5821      5824      5827
      5822      5821      5824      5825      5822      5821      5824      5826
      5822      5821      5824      5827      5823      5821      5824      5825
      5823      5821      5824      5826      5823      5821      5824      5827
      5821      5824      5827      5828      5821      5824      5827      5829
      5821      5824      5827      5830      5825      5824      5827      5828
      5825      5824      5827      5829      5825      5824      5827      5830
      5826      5824      5827      5828      5826      5824      5827      5829
      5826      5824      5827      5830      5824      5827      5830      5831
      5824      5827      5830      5832      5824      5827      5830      5833
      5828      5827      5830      5831      5828      5827      5830      5832
      5828      5827      5830      5833      5829      5827      5830      5831
      5829      5827      5830      5832      5829      5827      5830      5833
      5827      5830      5833      5834      5827      5830      5833      5835
      5827      5830      5833      5836      5831      5830      5833      5834
      5831      5830      5833      5835      5831      5830      5833      5836
      5832      5830      5833      5834      5832      5830      5833      5835
      5832      5830      5833      5836      5830      5833      5836      5837
      5830      5833      5836      5838      5830      5833      5836      5839
      5834      5833      5836      5837      5834      5833      5836      5838
      5834      5833      5836      5839      5835      5833      5836      5837
      5835      5833      5836      5838      5835      5833      5836      5839
      5833      5836      5839      5840      5833      5836      5839      5841
      5833      5836      5839      5842      5837      5836      5839      5840
      5837      5836      5839      5841      5837      5836      5839      5842
      5838      5836      5839      5840      5838      5836      5839      5841
      5838      5836      5839      5842      5836      5839      5842      5843
      5836      5839      5842      5844      5840      5839      5842      5843
      5840      5839      5842      5844      5841      5839      5842      5843
      5841      5839      5842      5844      5839      5842      5844      5845
      5839      5842      5844      5846      5843      5842      5844      5845
      5843      5842      5844      5846      5842      5844      5846      5847
      5842      5844      5846      5848      5842      5844      5846      5849
      5845      5844      5846      5847      5845      5844      5846      5848
      5845      5844      5846      5849      5844      5846      5849      5850
      5844      5846      5849      5851      5844      5846      5849      5852
      5847      5846      5849      5850      5847      5846      5849      5851
      5847      5846      5849      5852      5848      5846      5849      5850
      5848      5846      5849      5851      5848      5846      5849      5852
      5846      5849      5852      5853      5846      5849      5852      5854
      5846      5849      5852      5855      5850      5849      5852      5853
      5850      5849      5852      5854      5850      5849      5852      5855
      5851      5849      5852      5853      5851      5849      5852      5854
      5851      5849      5852      5855      5849      5852      5855      5856
      5849      5852      5855      5857      5849      5852      5855      5858
      5853      5852      5855      5856      5853      5852      5855      5857
      5853      5852      5855      5858      5854      5852      5855      5856
      5854      5852      5855      5857      5854      5852      5855      5858
      5852      5855      5858      5859      5852      5855      5858      5860
      5852      5855      5858      5861      5856      5855      5858      5859
      5856      5855      5858      5860      5856      5855      5858      5861
      5857      5855      5858      5859      5857      5855      5858      5860
      5857      5855      5858      5861      5855      5858      5861      5862
      5855      5858      5861      5863      5855      5858      5861      5864
      5859      5858      5861      5862      5859      5858      5861      5863
      5859      5858      5861      5864      5860      5858      5861      5862
      5860      5858      5861      5863      5860      5858      5861      5864
      5858      5861      5864      5865      5858      5861      5864      5866
      5858      5861      5864      5867      5862      5861      5864      5865
      5862      5861      5864      5866      5862      5861      5864      5867
      5863      5861      5864      5865      5863      5861      5864      5866
      5863      5861      5864      5867      5861      5864      5867      5868
      5861      5864      5867      5869      5861      5864      5867      5870
      5865      5864      5867      5868      5865      5864      5867      5869
      5865      5864      5867      5870      5866      5864      5867      5868
      5866      5864      5867      5869      5866      5864      5867      5870
      5872      5871      5875      5876      5872      5871      5875      5877
      5872      5871      5875      5878      5873      5871      5875      5876
      5873      5871      5875      5877      5873      5871      5875      5878
      5874      5871      5875      5876      5874      5871      5875      5877
      5874      5871      5875      5878      5871      5875      5878      5879
      5871      5875      5878      5880      5871      5875      5878      5881
      5876      5875      5878      5879      5876      5875      5878      5880
      5876      5875      5878      5881      5877      5875      5878      5879
      5877      5875      5878      5880      5877      5875      5878      5881
      5875      5878      5881      5882      5875      5878      5881      5883
      5875      5878      5881      5884      5879      5878      5881      5882
      5879      5878      5881      5883      5879      5878      5881      5884
      5880      5878      5881      5882      5880      5878      5881      5883
      5880      5878      5881      5884      5878      5881      5884      5885
      5878      5881      5884      5886      5878      5881      5884      5887
      5882      5881      5884      5885      5882      5881      5884      5886
      5882      5881      5884      5887      5883      5881      5884      5885
      5883      5881      5884      5886      5883      5881      5884      5887
      5881      5884      5887      5888      5881      5884      5887      5889
      5881      5884      5887      5890      5885      5884      5887      5888
      5885      5884      5887      5889      5885      5884      5887      5890
      5886      5884      5887      5888      5886      5884      5887      5889
      5886      5884      5887      5890      5884      5887      5890      5891
      5884      5887      5890      5892      5884      5887      5890      5893
      5888      5887      5890      5891      5888      5887      5890      5892
      5888      5887      5890      5893      5889      5887      5890      5891
      5889      5887      5890      5892      5889      5887      5890      5893
      5887      5890      5893      5894      5887      5890      5893      5895
      5887      5890      5893      5896      5891      5890      5893      5894
      5891      5890      5893      5895      5891      5890      5893      5896
      5892      5890      5893      5894      5892      5890      5893      5895
      5892      5890      5893      5896      5890      5893      5896      5897
      5890      5893      5896      5898      5890      5893      5896      5899
      5894      5893      5896      5897      5894      5893      5896      5898
      5894      5893      5896      5899      5895      5893      5896      5897
      5895      5893      5896      5898      5895      5893      5896      5899
      5893      5896      5899      5900      5893      5896      5899      5901
      5893      5896      5899      5902      5897      5896      5899      5900
      5897      5896      5899      5901      5897      5896      5899      5902
      5898      5896      5899      5900      5898      5896      5899      5901
      5898      5896      5899      5902      5896      5899      5902      5903
      5896      5899      5902      5904      5896      5899      5902      5905
      5900      5899      5902      5903      5900      5899      5902      5904
      5900      5899      5902      5905      5901      5899      5902      5903
      5901      5899      5902      5904      5901      5899      5902      5905
      5899      5902      5905      5906      5899      5902      5905      5907
      5899      5902      5905      5908      5903      5902      5905      5906
      5903      5902      5905      5907      5903      5902      5905      5908
      5904      5902      5905      5906      5904      5902      5905      5907
      5904      5902      5905      5908      5902      5905      5908      5909
      5902      5905      5908      5910      5902      5905      5908      5911
      5906      5905      5908      5909      5906      5905      5908      5910
      5906      5905      5908      5911      5907      5905      5908      5909
      5907      5905      5908      5910      5907      5905      5908      5911
      5905      5908      5911      5912      5905      5908      5911      5913
      5905      5908      5911      5914      5909      5908      5911      5912
      5909      5908      5911      5913      5909      5908      5911      5914
      5910      5908      5911      5912      5910      5908      5911      5913
      5910      5908      5911      5914      5908      5911      5914      5917
      5908      5911      5914      5915      5908      5911      5914      5916
      5912      5911      5914      5917      5912      5911      5914      5915
      5912      5911      5914      5916      5913      5911      5914      5917
      5913      5911      5914      5915      5913      5911      5914      5916
      5918      5917      5914      5911      5919      5917      5914      5911
      5918      5917      5914      5915      5919      5917      5914      5915
      5918      5917      5914      5916      5919      5917      5914      5916
      5914      5917      5919      5920      5918      5917      5919      5920
      5917      5919      5920      5921      5917      5919      5920      5922
      5917      5919      5920      5923      5919      5920      5923      5924
      5919      5920      5923      5925      5919      5920      5923      5952
      5921      5920      5923      5924      5921      5920      5923      5925
      5921      5920      5923      5952      5922      5920      5923      5924
      5922      5920      5923      5925      5922      5920      5923      5952
      5920      5923      5925      5926      5920      5923      5925      5927
      5920      5923      5925      5928      5920      5923      5952      5953
      5924      5923      5925      5926      5924      5923      5925      5927
      5924      5923      5925      5928      5924      5923      5952      5953
      5926      5925      5923      5952      5927      5925      5923      5952
      5928      5925      5923      5952      5925      5923      5952      5953
      5923      5925      5928      5929      5926      5925      5928      5929
      5927      5925      5928      5929      5925      5928      5929      5930
      5925      5928      5929      5950      5925      5928      5929      5951
      5928      5929      5930      5931      5931      5930      5929      5950
      5931      5930      5929      5951      5929      5930      5931      5932
      5929      5930      5931      5933      5929      5930      5931      5934
      5930      5931      5934      5935      5930      5931      5934      5936
      5930      5931      5934      5937      5932      5931      5934      5935
      5932      5931      5934      5936      5932      5931      5934      5937
      5933      5931      5934      5935      5933      5931      5934      5936
      5933      5931      5934      5937      5931      5934      5937      5938
      5931      5934      5937      5942      5931      5934      5937      5946
      5935      5934      5937      5938      5935      5934      5937      5942
      5935      5934      5937      5946      5936      5934      5937      5938
      5936      5934      5937      5942      5936      5934      5937      5946
      5934      5937      5938      5939      5934      5937      5938      5940
      5934      5937      5938      5941      5934      5937      5942      5943
      5934      5937      5942      5944      5934      5937      5942      5945
      5934      5937      5946      5947      5934      5937      5946      5948
      5934      5937      5946      5949      5939      5938      5937      5942
      5940      5938      5937      5942      5941      5938      5937      5942
      5938      5937      5942      5943      5938      5937      5942      5944
      5938      5937      5942      5945      5939      5938      5937      5946
      5940      5938      5937      5946      5941      5938      5937      5946
      5938      5937      5946      5947      5938      5937      5946      5948
      5938      5937      5946      5949      5943      5942      5937      5946
      5944      5942      5937      5946      5945      5942      5937      5946
      5942      5937      5946      5947      5942      5937      5946      5948
      5942      5937      5946      5949      5923      5952      5953      5955
      5923      5952      5953      5954      5956      5955      5953      5952
      5957      5955      5953      5952      5958      5955      5953      5952
      5956      5955      5953      5954      5957      5955      5953      5954
      5958      5955      5953      5954      5953      5955      5958      5959
      5953      5955      5958      5960      5953      5955      5958      5961
      5956      5955      5958      5959      5956      5955      5958      5960
      5956      5955      5958      5961      5957      5955      5958      5959
      5957      5955      5958      5960      5957      5955      5958      5961
      5955      5958      5961      5962      5955      5958      5961      5963
      5955      5958      5961      5964      5959      5958      5961      5962
      5959      5958      5961      5963      5959      5958      5961      5964
      5960      5958      5961      5962      5960      5958      5961      5963
      5960      5958      5961      5964      5958      5961      5964      5965
      5958      5961      5964      5966      5958      5961      5964      5967
      5962      5961      5964      5965      5962      5961      5964      5966
      5962      5961      5964      5967      5963      5961      5964      5965
      5963      5961      5964      5966      5963      5961      5964      5967
      5961      5964      5967      5968      5961      5964      5967      5969
      5961      5964      5967      5970      5965      5964      5967      5968
      5965      5964      5967      5969      5965      5964      5967      5970
      5966      5964      5967      5968      5966      5964      5967      5969
      5966      5964      5967      5970      5964      5967      5970      5971
      5964      5967      5970      5972      5964      5967      5970      5973
      5968      5967      5970      5971      5968      5967      5970      5972
      5968      5967      5970      5973      5969      5967      5970      5971
      5969      5967      5970      5972      5969      5967      5970      5973
      5967      5970      5973      5974      5967      5970      5973      5975
      5967      5970      5973      5976      5971      5970      5973      5974
      5971      5970      5973      5975      5971      5970      5973      5976
      5972      5970      5973      5974      5972      5970      5973      5975
      5972      5970      5973      5976      5970      5973      5976      5977
      5970      5973      5976      5978      5974      5973      5976      5977
      5974      5973      5976      5978      5975      5973      5976      5977
      5975      5973      5976      5978      5973      5976      5978      5979
      5973      5976      5978      5980      5977      5976      5978      5979
      5977      5976      5978      5980      5976      5978      5980      5981
      5976      5978      5980      5982      5976      5978      5980      5983
      5979      5978      5980      5981      5979      5978      5980      5982
      5979      5978      5980      5983      5978      5980      5983      5984
      5978      5980      5983      5985      5978      5980      5983      5986
      5981      5980      5983      5984      5981      5980      5983      5985
      5981      5980      5983      5986      5982      5980      5983      5984
      5982      5980      5983      5985      5982      5980      5983      5986
      5980      5983      5986      5987      5980      5983      5986      5988
      5980      5983      5986      5989      5984      5983      5986      5987
      5984      5983      5986      5988      5984      5983      5986      5989
      5985      5983      5986      5987      5985      5983      5986      5988
      5985      5983      5986      5989      5983      5986      5989      5990
      5983      5986      5989      5991      5983      5986      5989      5992
      5987      5986      5989      5990      5987      5986      5989      5991
      5987      5986      5989      5992      5988      5986      5989      5990
      5988      5986      5989      5991      5988      5986      5989      5992
      5986      5989      5992      5993      5986      5989      5992      5994
      5986      5989      5992      5995      5990      5989      5992      5993
      5990      5989      5992      5994      5990      5989      5992      5995
      5991      5989      5992      5993      5991      5989      5992      5994
      5991      5989      5992      5995      5989      5992      5995      5996
      5989      5992      5995      5997      5989      5992      5995      5998
      5993      5992      5995      5996      5993      5992      5995      5997
      5993      5992      5995      5998      5994      5992      5995      5996
      5994      5992      5995      5997      5994      5992      5995      5998
      5992      5995      5998      5999      5992      5995      5998      6000
      5992      5995      5998      6001      5996      5995      5998      5999
      5996      5995      5998      6000      5996      5995      5998      6001
      5997      5995      5998      5999      5997      5995      5998      6000
      5997      5995      5998      6001      5995      5998      6001      6002
      5995      5998      6001      6003      5995      5998      6001      6004
      5999      5998      6001      6002      5999      5998      6001      6003
      5999      5998      6001      6004      6000      5998      6001      6002
      6000      5998      6001      6003      6000      5998      6001      6004
      6006      6005      6009      6010      6006      6005      6009      6011
      6006      6005      6009      6012      6007      6005      6009      6010
      6007      6005      6009      6011      6007      6005      6009      6012
      6008      6005      6009      6010      6008      6005      6009      6011
      6008      6005      6009      6012      6005      6009      6012      6013
      6005      6009      6012      6014      6005      6009      6012      6015
      6010      6009      6012      6013      6010      6009      6012      6014
      6010      6009      6012      6015      6011      6009      6012      6013
      6011      6009      6012      6014      6011      6009      6012      6015
      6009      6012      6015      6016      6009      6012      6015      6017
      6009      6012      6015      6018      6013      6012      6015      6016
      6013      6012      6015      6017      6013      6012      6015      6018
      6014      6012      6015      6016      6014      6012      6015      6017
      6014      6012      6015      6018      6012      6015      6018      6019
      6012      6015      6018      6020      6012      6015      6018      6021
      6016      6015      6018      6019      6016      6015      6018      6020
      6016      6015      6018      6021      6017      6015      6018      6019
      6017      6015      6018      6020      6017      6015      6018      6021
      6015      6018      6021      6022      6015      6018      6021      6023
      6015      6018      6021      6024      6019      6018      6021      6022
      6019      6018      6021      6023      6019      6018      6021      6024
      6020      6018      6021      6022      6020      6018      6021      6023
      6020      6018      6021      6024      6018      6021      6024      6025
      6018      6021      6024      6026      6018      6021      6024      6027
      6022      6021      6024      6025      6022      6021      6024      6026
      6022      6021      6024      6027      6023      6021      6024      6025
      6023      6021      6024      6026      6023      6021      6024      6027
      6021      6024      6027      6028      6021      6024      6027      6029
      6021      6024      6027      6030      6025      6024      6027      6028
      6025      6024      6027      6029      6025      6024      6027      6030
      6026      6024      6027      6028      6026      6024      6027      6029
      6026      6024      6027      6030      6024      6027      6030      6031
      6024      6027      6030      6032      6024      6027      6030      6033
      6028      6027      6030      6031      6028      6027      6030      6032
      6028      6027      6030      6033      6029      6027      6030      6031
      6029      6027      6030      6032      6029      6027      6030      6033
      6027      6030      6033      6034      6027      6030      6033      6035
      6027      6030      6033      6036      6031      6030      6033      6034
      6031      6030      6033      6035      6031      6030      6033      6036
      6032      6030      6033      6034      6032      6030      6033      6035
      6032      6030      6033      6036      6030      6033      6036      6037
      6030      6033      6036      6038      6030      6033      6036      6039
      6034      6033      6036      6037      6034      6033      6036      6038
      6034      6033      6036      6039      6035      6033      6036      6037
      6035      6033      6036      6038      6035      6033      6036      6039
      6033      6036      6039      6040      6033      6036      6039      6041
      6033      6036      6039      6042      6037      6036      6039      6040
      6037      6036      6039      6041      6037      6036      6039      6042
      6038      6036      6039      6040      6038      6036      6039      6041
      6038      6036      6039      6042      6036      6039      6042      6043
      6036      6039      6042      6044      6036      6039      6042      6045
      6040      6039      6042      6043      6040      6039      6042      6044
      6040      6039      6042      6045      6041      6039      6042      6043
      6041      6039      6042      6044      6041      6039      6042      6045
      6039      6042      6045      6046      6039      6042      6045      6047
      6039      6042      6045      6048      6043      6042      6045      6046
      6043      6042      6045      6047      6043      6042      6045      6048
      6044      6042      6045      6046      6044      6042      6045      6047
      6044      6042      6045      6048      6042      6045      6048      6051
      6042      6045      6048      6049      6042      6045      6048      6050
      6046      6045      6048      6051      6046      6045      6048      6049
      6046      6045      6048      6050      6047      6045      6048      6051
      6047      6045      6048      6049      6047      6045      6048      6050
      6052      6051      6048      6045      6053      6051      6048      6045
      6052      6051      6048      6049      6053      6051      6048      6049
      6052      6051      6048      6050      6053      6051      6048      6050
      6048      6051      6053      6054      6052      6051      6053      6054
      6051      6053      6054      6055      6051      6053      6054      6056
      6051      6053      6054      6057      6053      6054      6057      6058
      6053      6054      6057      6059      6053      6054      6057      6086
      6055      6054      6057      6058      6055      6054      6057      6059
      6055      6054      6057      6086      6056      6054      6057      6058
      6056      6054      6057      6059      6056      6054      6057      6086
      6054      6057      6059      6060      6054      6057      6059      6061
      6054      6057      6059      6062      6054      6057      6086      6087
      6058      6057      6059      6060      6058      6057      6059      6061
      6058      6057      6059      6062      6058      6057      6086      6087
      6060      6059      6057      6086      6061      6059      6057      6086
      6062      6059      6057      6086      6059      6057      6086      6087
      6057      6059      6062      6063      6060      6059      6062      6063
      6061      6059      6062      6063      6059      6062      6063      6064
      6059      6062      6063      6084      6059      6062      6063      6085
      6062      6063      6064      6065      6065      6064      6063      6084
      6065      6064      6063      6085      6063      6064      6065      6066
      6063      6064      6065      6067      6063      6064      6065      6068
      6064      6065      6068      6069      6064      6065      6068      6070
      6064      6065      6068      6071      6066      6065      6068      6069
      6066      6065      6068      6070      6066      6065      6068      6071
      6067      6065      6068      6069      6067      6065      6068      6070
      6067      6065      6068      6071      6065      6068      6071      6072
      6065      6068      6071      6076      6065      6068      6071      6080
      6069      6068      6071      6072      6069      6068      6071      6076
      6069      6068      6071      6080      6070      6068      6071      6072
      6070      6068      6071      6076      6070      6068      6071      6080
      6068      6071      6072      6073      6068      6071      6072      6074
      6068      6071      6072      6075      6068      6071      6076      6077
      6068      6071      6076      6078      6068      6071      6076      6079
      6068      6071      6080      6081      6068      6071      6080      6082
      6068      6071      6080      6083      6073      6072      6071      6076
      6074      6072      6071      6076      6075      6072      6071      6076
      6072      6071      6076      6077      6072      6071      6076      6078
      6072      6071      6076      6079      6073      6072      6071      6080
      6074      6072      6071      6080      6075      6072      6071      6080
      6072      6071      6080      6081      6072      6071      6080      6082
      6072      6071      6080      6083      6077      6076      6071      6080
      6078      6076      6071      6080      6079      6076      6071      6080
      6076      6071      6080      6081      6076      6071      6080      6082
      6076      6071      6080      6083      6057      6086      6087      6089
      6057      6086      6087      6088      6090      6089      6087      6086
      6091      6089      6087      6086      6092      6089      6087      6086
      6090      6089      6087      6088      6091      6089      6087      6088
      6092      6089      6087      6088      6087      6089      6092      6093
      6087      6089      6092      6094      6087      6089      6092      6095
      6090      6089      6092      6093      6090      6089      6092      6094
      6090      6089      6092      6095      6091      6089      6092      6093
      6091      6089      6092      6094      6091      6089      6092      6095
      6089      6092      6095      6096      6089      6092      6095      6097
      6089      6092      6095      6098      6093      6092      6095      6096
      6093      6092      6095      6097      6093      6092      6095      6098
      6094      6092      6095      6096      6094      6092      6095      6097
      6094      6092      6095      6098      6092      6095      6098      6099
      6092      6095      6098      6100      6092      6095      6098      6101
      6096      6095      6098      6099      6096      6095      6098      6100
      6096      6095      6098      6101      6097      6095      6098      6099
      6097      6095      6098      6100      6097      6095      6098      6101
      6095      6098      6101      6102      6095      6098      6101      6103
      6095      6098      6101      6104      6099      6098      6101      6102
      6099      6098      6101      6103      6099      6098      6101      6104
      6100      6098      6101      6102      6100      6098      6101      6103
      6100      6098      6101      6104      6098      6101      6104      6105
      6098      6101      6104      6106      6098      6101      6104      6107
      6102      6101      6104      6105      6102      6101      6104      6106
      6102      6101      6104      6107      6103      6101      6104      6105
      6103      6101      6104      6106      6103      6101      6104      6107
      6101      6104      6107      6108      6101      6104      6107      6109
      6101      6104      6107      6110      6105      6104      6107      6108
      6105      6104      6107      6109      6105      6104      6107      6110
      6106      6104      6107      6108      6106      6104      6107      6109
      6106      6104      6107      6110      6104      6107      6110      6111
      6104      6107      6110      6112      6108      6107      6110      6111
      6108      6107      6110      6112      6109      6107      6110      6111
      6109      6107      6110      6112      6107      6110      6112      6113
      6107      6110      6112      6114      6111      6110      6112      6113
      6111      6110      6112      6114      6110      6112      6114      6115
      6110      6112      6114      6116      6110      6112      6114      6117
      6113      6112      6114      6115      6113      6112      6114      6116
      6113      6112      6114      6117      6112      6114      6117      6118
      6112      6114      6117      6119      6112      6114      6117      6120
      6115      6114      6117      6118      6115      6114      6117      6119
      6115      6114      6117      6120      6116      6114      6117      6118
      6116      6114      6117      6119      6116      6114      6117      6120
      6114      6117      6120      6121      6114      6117      6120      6122
      6114      6117      6120      6123      6118      6117      6120      6121
      6118      6117      6120      6122      6118      6117      6120      6123
      6119      6117      6120      6121      6119      6117      6120      6122
      6119      6117      6120      6123      6117      6120      6123      6124
      6117      6120      6123      6125      6117      6120      6123      6126
      6121      6120      6123      6124      6121      6120      6123      6125
      6121      6120      6123      6126      6122      6120      6123      6124
      6122      6120      6123      6125      6122      6120      6123      6126
      6120      6123      6126      6127      6120      6123      6126      6128
      6120      6123      6126      6129      6124      6123      6126      6127
      6124      6123      6126      6128      6124      6123      6126      6129
      6125      6123      6126      6127      6125      6123      6126      6128
      6125      6123      6126      6129      6123      6126      6129      6130
      6123      6126      6129      6131      6123      6126      6129      6132
      6127      6126      6129      6130      6127      6126      6129      6131
      6127      6126      6129      6132      6128      6126      6129      6130
      6128      6126      6129      6131      6128      6126      6129      6132
      6126      6129      6132      6133      6126      6129      6132      6134
      6126      6129      6132      6135      6130      6129      6132      6133
      6130      6129      6132      6134      6130      6129      6132      6135
      6131      6129      6132      6133      6131      6129      6132      6134
      6131      6129      6132      6135      6129      6132      6135      6136
      6129      6132      6135      6137      6129      6132      6135      6138
      6133      6132      6135      6136      6133      6132      6135      6137
      6133      6132      6135      6138      6134      6132      6135      6136
      6134      6132      6135      6137      6134      6132      6135      6138
      6140      6139      6143      6144      6140      6139      6143      6145
      6140      6139      6143      6146      6141      6139      6143      6144
      6141      6139      6143      6145      6141      6139      6143      6146
      6142      6139      6143      6144      6142      6139      6143      6145
      6142      6139      6143      6146      6139      6143      6146      6147
      6139      6143      6146      6148      6139      6143      6146      6149
      6144      6143      6146      6147      6144      6143      6146      6148
      6144      6143      6146      6149      6145      6143      6146      6147
      6145      6143      6146      6148      6145      6143      6146      6149
      6143      6146      6149      6150      6143      6146      6149      6151
      6143      6146      6149      6152      6147      6146      6149      6150
      6147      6146      6149      6151      6147      6146      6149      6152
      6148      6146      6149      6150      6148      6146      6149      6151
      6148      6146      6149      6152      6146      6149      6152      6153
      6146      6149      6152      6154      6146      6149      6152      6155
      6150      6149      6152      6153      6150      6149      6152      6154
      6150      6149      6152      6155      6151      6149      6152      6153
      6151      6149      6152      6154      6151      6149      6152      6155
      6149      6152      6155      6156      6149      6152      6155      6157
      6149      6152      6155      6158      6153      6152      6155      6156
      6153      6152      6155      6157      6153      6152      6155      6158
      6154      6152      6155      6156      6154      6152      6155      6157
      6154      6152      6155      6158      6152      6155      6158      6159
      6152      6155      6158      6160      6152      6155      6158      6161
      6156      6155      6158      6159      6156      6155      6158      6160
      6156      6155      6158      6161      6157      6155      6158      6159
      6157      6155      6158      6160      6157      6155      6158      6161
      6155      6158      6161      6162      6155      6158      6161      6163
      6155      6158      6161      6164      6159      6158      6161      6162
      6159      6158      6161      6163      6159      6158      6161      6164
      6160      6158      6161      6162      6160      6158      6161      6163
      6160      6158      6161      6164      6158      6161      6164      6165
      6158      6161      6164      6166      6158      6161      6164      6167
      6162      6161      6164      6165      6162      6161      6164      6166
      6162      6161      6164      6167      6163      6161      6164      6165
      6163      6161      6164      6166      6163      6161      6164      6167
      6161      6164      6167      6168      6161      6164      6167      6169
      6161      6164      6167      6170      6165      6164      6167      6168
      6165      6164      6167      6169      6165      6164      6167      6170
      6166      6164      6167      6168      6166      6164      6167      6169
      6166      6164      6167      6170      6164      6167      6170      6171
      6164      6167      6170      6172      6164      6167      6170      6173
      6168      6167      6170      6171      6168      6167      6170      6172
      6168      6167      6170      6173      6169      6167      6170      6171
      6169      6167      6170      6172      6169      6167      6170      6173
      6167      6170      6173      6174      6167      6170      6173      6175
      6167      6170      6173      6176      6171      6170      6173      6174
      6171      6170      6173      6175      6171      6170      6173      6176
      6172      6170      6173      6174      6172      6170      6173      6175
      6172      6170      6173      6176      6170      6173      6176      6177
      6170      6173      6176      6178      6170      6173      6176      6179
      6174      6173      6176      6177      6174      6173      6176      6178
      6174      6173      6176      6179      6175      6173      6176      6177
      6175      6173      6176      6178      6175      6173      6176      6179
      6173      6176      6179      6180      6173      6176      6179      6181
      6173      6176      6179      6182      6177      6176      6179      6180
      6177      6176      6179      6181      6177      6176      6179      6182
      6178      6176      6179      6180      6178      6176      6179      6181
      6178      6176      6179      6182      6176      6179      6182      6185
      6176      6179      6182      6183      6176      6179      6182      6184
      6180      6179      6182      6185      6180      6179      6182      6183
      6180      6179      6182      6184      6181      6179      6182      6185
      6181      6179      6182      6183      6181      6179      6182      6184
      6186      6185      6182      6179      6187      6185      6182      6179
      6186      6185      6182      6183      6187      6185      6182      6183
      6186      6185      6182      6184      6187      6185      6182      6184
      6182      6185      6187      6188      6186      6185      6187      6188
      6185      6187      6188      6189      6185      6187      6188      6190
      6185      6187      6188      6191      6187      6188      6191      6192
      6187      6188      6191      6193      6187      6188      6191      6220
      6189      6188      6191      6192      6189      6188      6191      6193
      6189      6188      6191      6220      6190      6188      6191      6192
      6190      6188      6191      6193      6190      6188      6191      6220
      6188      6191      6193      6194      6188      6191      6193      6195
      6188      6191      6193      6196      6188      6191      6220      6221
      6192      6191      6193      6194      6192      6191      6193      6195
      6192      6191      6193      6196      6192      6191      6220      6221
      6194      6193      6191      6220      6195      6193      6191      6220
      6196      6193      6191      6220      6193      6191      6220      6221
      6191      6193      6196      6197      6194      6193      6196      6197
      6195      6193      6196      6197      6193      6196      6197      6198
      6193      6196      6197      6218      6193      6196      6197      6219
      6196      6197      6198      6199      6199      6198      6197      6218
      6199      6198      6197      6219      6197      6198      6199      6200
      6197      6198      6199      6201      6197      6198      6199      6202
      6198      6199      6202      6203      6198      6199      6202      6204
      6198      6199      6202      6205      6200      6199      6202      6203
      6200      6199      6202      6204      6200      6199      6202      6205
      6201      6199      6202      6203      6201      6199      6202      6204
      6201      6199      6202      6205      6199      6202      6205      6206
      6199      6202      6205      6210      6199      6202      6205      6214
      6203      6202      6205      6206      6203      6202      6205      6210
      6203      6202      6205      6214      6204      6202      6205      6206
      6204      6202      6205      6210      6204      6202      6205      6214
      6202      6205      6206      6207      6202      6205      6206      6208
      6202      6205      6206      6209      6202      6205      6210      6211
      6202      6205      6210      6212      6202      6205      6210      6213
      6202      6205      6214      6215      6202      6205      6214      6216
      6202      6205      6214      6217      6207      6206      6205      6210
      6208      6206      6205      6210      6209      6206      6205      6210
      6206      6205      6210      6211      6206      6205      6210      6212
      6206      6205      6210      6213      6207      6206      6205      6214
      6208      6206      6205      6214      6209      6206      6205      6214
      6206      6205      6214      6215      6206      6205      6214      6216
      6206      6205      6214      6217      6211      6210      6205      6214
      6212      6210      6205      6214      6213      6210      6205      6214
      6210      6205      6214      6215      6210      6205      6214      6216
      6210      6205      6214      6217      6191      6220      6221      6223
      6191      6220      6221      6222      6224      6223      6221      6220
      6225      6223      6221      6220      6226      6223      6221      6220
      6224      6223      6221      6222      6225      6223      6221      6222
      6226      6223      6221      6222      6221      6223      6226      6227
      6221      6223      6226      6228      6221      6223      6226      6229
      6224      6223      6226      6227      6224      6223      6226      6228
      6224      6223      6226      6229      6225      6223      6226      6227
      6225      6223      6226      6228      6225      6223      6226      6229
      6223      6226      6229      6230      6223      6226      6229      6231
      6223      6226      6229      6232      6227      6226      6229      6230
      6227      6226      6229      6231      6227      6226      6229      6232
      6228      6226      6229      6230      6228      6226      6229      6231
      6228      6226      6229      6232      6226      6229      6232      6233
      6226      6229      6232      6234      6226      6229      6232      6235
      6230      6229      6232      6233      6230      6229      6232      6234
      6230      6229      6232      6235      6231      6229      6232      6233
      6231      6229      6232      6234      6231      6229      6232      6235
      6229      6232      6235      6236      6229      6232      6235      6237
      6229      6232      6235      6238      6233      6232      6235      6236
      6233      6232      6235      6237      6233      6232      6235      6238
      6234      6232      6235      6236      6234      6232      6235      6237
      6234      6232      6235      6238      6232      6235      6238      6239
      6232      6235      6238      6240      6232      6235      6238      6241
      6236      6235      6238      6239      6236      6235      6238      6240
      6236      6235      6238      6241      6237      6235      6238      6239
      6237      6235      6238      6240      6237      6235      6238      6241
      6235      6238      6241      6242      6235      6238      6241      6243
      6235      6238      6241      6244      6239      6238      6241      6242
      6239      6238      6241      6243      6239      6238      6241      6244
      6240      6238      6241      6242      6240      6238      6241      6243
      6240      6238      6241      6244      6238      6241      6244      6245
      6238      6241      6244      6246      6242      6241      6244      6245
      6242      6241      6244      6246      6243      6241      6244      6245
      6243      6241      6244      6246      6241      6244      6246      6247
      6241      6244      6246      6248      6245      6244      6246      6247
      6245      6244      6246      6248      6244      6246      6248      6249
      6244      6246      6248      6250      6244      6246      6248      6251
      6247      6246      6248      6249      6247      6246      6248      6250
      6247      6246      6248      6251      6246      6248      6251      6252
      6246      6248      6251      6253      6246      6248      6251      6254
      6249      6248      6251      6252      6249      6248      6251      6253
      6249      6248      6251      6254      6250      6248      6251      6252
      6250      6248      6251      6253      6250      6248      6251      6254
      6248      6251      6254      6255      6248      6251      6254      6256
      6248      6251      6254      6257      6252      6251      6254      6255
      6252      6251      6254      6256      6252      6251      6254      6257
      6253      6251      6254      6255      6253      6251      6254      6256
      6253      6251      6254      6257      6251      6254      6257      6258
      6251      6254      6257      6259      6251      6254      6257      6260
      6255      6254      6257      6258      6255      6254      6257      6259
      6255      6254      6257      6260      6256      6254      6257      6258
      6256      6254      6257      6259      6256      6254      6257      6260
      6254      6257      6260      6261      6254      6257      6260      6262
      6254      6257      6260      6263      6258      6257      6260      6261
      6258      6257      6260      6262      6258      6257      6260      6263
      6259      6257      6260      6261      6259      6257      6260      6262
      6259      6257      6260      6263      6257      6260      6263      6264
      6257      6260      6263      6265      6257      6260      6263      6266
      6261      6260      6263      6264      6261      6260      6263      6265
      6261      6260      6263      6266      6262      6260      6263      6264
      6262      6260      6263      6265      6262      6260      6263      6266
      6260      6263      6266      6267      6260      6263      6266      6268
      6260      6263      6266      6269      6264      6263      6266      6267
      6264      6263      6266      6268      6264      6263      6266      6269
      6265      6263      6266      6267      6265      6263      6266      6268
      6265      6263      6266      6269      6263      6266      6269      6270
      6263      6266      6269      6271      6263      6266      6269      6272
      6267      6266      6269      6270      6267      6266      6269      6271
      6267      6266      6269      6272      6268      6266      6269      6270
      6268      6266      6269      6271      6268      6266      6269      6272
      6274      6273      6277      6278      6274      6273      6277      6279
      6274      6273      6277      6280      6275      6273      6277      6278
      6275      6273      6277      6279      6275      6273      6277      6280
      6276      6273      6277      6278      6276      6273      6277      6279
      6276      6273      6277      6280      6273      6277      6280      6281
      6273      6277      6280      6282      6273      6277      6280      6283
      6278      6277      6280      6281      6278      6277      6280      6282
      6278      6277      6280      6283      6279      6277      6280      6281
      6279      6277      6280      6282      6279      6277      6280      6283
      6277      6280      6283      6284      6277      6280      6283      6285
      6277      6280      6283      6286      6281      6280      6283      6284
      6281      6280      6283      6285      6281      6280      6283      6286
      6282      6280      6283      6284      6282      6280      6283      6285
      6282      6280      6283      6286      6280      6283      6286      6287
      6280      6283      6286      6288      6280      6283      6286      6289
      6284      6283      6286      6287      6284      6283      6286      6288
      6284      6283      6286      6289      6285      6283      6286      6287
      6285      6283      6286      6288      6285      6283      6286      6289
      6283      6286      6289      6290      6283      6286      6289      6291
      6283      6286      6289      6292      6287      6286      6289      6290
      6287      6286      6289      6291      6287      6286      6289      6292
      6288      6286      6289      6290      6288      6286      6289      6291
      6288      6286      6289      6292      6286      6289      6292      6293
      6286      6289      6292      6294      6286      6289      6292      6295
      6290      6289      6292      6293      6290      6289      6292      6294
      6290      6289      6292      6295      6291      6289      6292      6293
      6291      6289      6292      6294      6291      6289      6292      6295
      6289      6292      6295      6296      6289      6292      6295      6297
      6289      6292      6295      6298      6293      6292      6295      6296
      6293      6292      6295      6297      6293      6292      6295      6298
      6294      6292      6295      6296      6294      6292      6295      6297
      6294      6292      6295      6298      6292      6295      6298      6299
      6292      6295      6298      6300      6292      6295      6298      6301
      6296      6295      6298      6299      6296      6295      6298      6300
      6296      6295      6298      6301      6297      6295      6298      6299
      6297      6295      6298      6300      6297      6295      6298      6301
      6295      6298      6301      6302      6295      6298      6301      6303
      6295      6298      6301      6304      6299      6298      6301      6302
      6299      6298      6301      6303      6299      6298      6301      6304
      6300      6298      6301      6302      6300      6298      6301      6303
      6300      6298      6301      6304      6298      6301      6304      6305
      6298      6301      6304      6306      6298      6301      6304      6307
      6302      6301      6304      6305      6302      6301      6304      6306
      6302      6301      6304      6307      6303      6301      6304      6305
      6303      6301      6304      6306      6303      6301      6304      6307
      6301      6304      6307      6308      6301      6304      6307      6309
      6301      6304      6307      6310      6305      6304      6307      6308
      6305      6304      6307      6309      6305      6304      6307      6310
      6306      6304      6307      6308      6306      6304      6307      6309
      6306      6304      6307      6310      6304      6307      6310      6311
      6304      6307      6310      6312      6304      6307      6310      6313
      6308      6307      6310      6311      6308      6307      6310      6312
      6308      6307      6310      6313      6309      6307      6310      6311
      6309      6307      6310      6312      6309      6307      6310      6313
      6307      6310      6313      6314      6307      6310      6313      6315
      6307      6310      6313      6316      6311      6310      6313      6314
      6311      6310      6313      6315      6311      6310      6313      6316
      6312      6310      6313      6314      6312      6310      6313      6315
      6312      6310      6313      6316      6310      6313      6316      6319
      6310      6313      6316      6317      6310      6313      6316      6318
      6314      6313      6316      6319      6314      6313      6316      6317
      6314      6313      6316      6318      6315      6313      6316      6319
      6315      6313      6316      6317      6315      6313      6316      6318
      6320      6319      6316      6313      6321      6319      6316      6313
      6320      6319      6316      6317      6321      6319      6316      6317
      6320      6319      6316      6318      6321      6319      6316      6318
      6316      6319      6321      6322      6320      6319      6321      6322
      6319      6321      6322      6323      6319      6321      6322      6324
      6319      6321      6322      6325      6321      6322      6325      6326
      6321      6322      6325      6327      6321      6322      6325      6354
      6323      6322      6325      6326      6323      6322      6325      6327
      6323      6322      6325      6354      6324      6322      6325      6326
      6324      6322      6325      6327      6324      6322      6325      6354
      6322      6325      6327      6328      6322      6325      6327      6329
      6322      6325      6327      6330      6322      6325      6354      6355
      6326      6325      6327      6328      6326      6325      6327      6329
      6326      6325      6327      6330      6326      6325      6354      6355
      6328      6327      6325      6354      6329      6327      6325      6354
      6330      6327      6325      6354      6327      6325      6354      6355
      6325      6327      6330      6331      6328      6327      6330      6331
      6329      6327      6330      6331      6327      6330      6331      6332
      6327      6330      6331      6352      6327      6330      6331      6353
      6330      6331      6332      6333      6333      6332      6331      6352
      6333      6332      6331      6353      6331      6332      6333      6334
      6331      6332      6333      6335      6331      6332      6333      6336
      6332      6333      6336      6337      6332      6333      6336      6338
      6332      6333      6336      6339      6334      6333      6336      6337
      6334      6333      6336      6338      6334      6333      6336      6339
      6335      6333      6336      6337      6335      6333      6336      6338
      6335      6333      6336      6339      6333      6336      6339      6340
      6333      6336      6339      6344      6333      6336      6339      6348
      6337      6336      6339      6340      6337      6336      6339      6344
      6337      6336      6339      6348      6338      6336      6339      6340
      6338      6336      6339      6344      6338      6336      6339      6348
      6336      6339      6340      6341      6336      6339      6340      6342
      6336      6339      6340      6343      6336      6339      6344      6345
      6336      6339      6344      6346      6336      6339      6344      6347
      6336      6339      6348      6349      6336      6339      6348      6350
      6336      6339      6348      6351      6341      6340      6339      6344
      6342      6340      6339      6344      6343      6340      6339      6344
      6340      6339      6344      6345      6340      6339      6344      6346
      6340      6339      6344      6347      6341      6340      6339      6348
      6342      6340      6339      6348      6343      6340      6339      6348
      6340      6339      6348      6349      6340      6339      6348      6350
      6340      6339      6348      6351      6345      6344      6339      6348
      6346      6344      6339      6348      6347      6344      6339      6348
      6344      6339      6348      6349      6344      6339      6348      6350
      6344      6339      6348      6351      6325      6354      6355      6357
      6325      6354      6355      6356      6358      6357      6355      6354
      6359      6357      6355      6354      6360      6357      6355      6354
      6358      6357      6355      6356      6359      6357      6355      6356
      6360      6357      6355      6356      6355      6357      6360      6361
      6355      6357      6360      6362      6355      6357      6360      6363
      6358      6357      6360      6361      6358      6357      6360      6362
      6358      6357      6360      6363      6359      6357      6360      6361
      6359      6357      6360      6362      6359      6357      6360      6363
      6357      6360      6363      6364      6357      6360      6363      6365
      6357      6360      6363      6366      6361      6360      6363      6364
      6361      6360      6363      6365      6361      6360      6363      6366
      6362      6360      6363      6364      6362      6360      6363      6365
      6362      6360      6363      6366      6360      6363      6366      6367
      6360      6363      6366      6368      6360      6363      6366      6369
      6364      6363      6366      6367      6364      6363      6366      6368
      6364      6363      6366      6369      6365      6363      6366      6367
      6365      6363      6366      6368      6365      6363      6366      6369
      6363      6366      6369      6370      6363      6366      6369      6371
      6363      6366      6369      6372      6367      6366      6369      6370
      6367      6366      6369      6371      6367      6366      6369      6372
      6368      6366      6369      6370      6368      6366      6369      6371
      6368      6366      6369      6372      6366      6369      6372      6373
      6366      6369      6372      6374      6366      6369      6372      6375
      6370      6369      6372      6373      6370      6369      6372      6374
      6370      6369      6372      6375      6371      6369      6372      6373
      6371      6369      6372      6374      6371      6369      6372      6375
      6369      6372      6375      6376      6369      6372      6375      6377
      6369      6372      6375      6378      6373      6372      6375      6376
      6373      6372      6375      6377      6373      6372      6375      6378
      6374      6372      6375      6376      6374      6372      6375      6377
      6374      6372      6375      6378      6372      6375      6378      6379
      6372      6375      6378      6380      6376      6375      6378      6379
      6376      6375      6378      6380      6377      6375      6378      6379
      6377      6375      6378      6380      6375      6378      6380      6381
      6375      6378      6380      6382      6379      6378      6380      6381
      6379      6378      6380      6382      6378      6380      6382      6383
      6378      6380      6382      6384      6378      6380      6382      6385
      6381      6380      6382      6383      6381      6380      6382      6384
      6381      6380      6382      6385      6380      6382      6385      6386
      6380      6382      6385      6387      6380      6382      6385      6388
      6383      6382      6385      6386      6383      6382      6385      6387
      6383      6382      6385      6388      6384      6382      6385      6386
      6384      6382      6385      6387      6384      6382      6385      6388
      6382      6385      6388      6389      6382      6385      6388      6390
      6382      6385      6388      6391      6386      6385      6388      6389
      6386      6385      6388      6390      6386      6385      6388      6391
      6387      6385      6388      6389      6387      6385      6388      6390
      6387      6385      6388      6391      6385      6388      6391      6392
      6385      6388      6391      6393      6385      6388      6391      6394
      6389      6388      6391      6392      6389      6388      6391      6393
      6389      6388      6391      6394      6390      6388      6391      6392
      6390      6388      6391      6393      6390      6388      6391      6394
      6388      6391      6394      6395      6388      6391      6394      6396
      6388      6391      6394      6397      6392      6391      6394      6395
      6392      6391      6394      6396      6392      6391      6394      6397
      6393      6391      6394      6395      6393      6391      6394      6396
      6393      6391      6394      6397      6391      6394      6397      6398
      6391      6394      6397      6399      6391      6394      6397      6400
      6395      6394      6397      6398      6395      6394      6397      6399
      6395      6394      6397      6400      6396      6394      6397      6398
      6396      6394      6397      6399      6396      6394      6397      6400
      6394      6397      6400      6401      6394      6397      6400      6402
      6394      6397      6400      6403      6398      6397      6400      6401
      6398      6397      6400      6402      6398      6397      6400      6403
      6399      6397      6400      6401      6399      6397      6400      6402
      6399      6397      6400      6403      6397      6400      6403      6404
      6397      6400      6403      6405      6397      6400      6403      6406
      6401      6400      6403      6404      6401      6400      6403      6405
      6401      6400      6403      6406      6402      6400      6403      6404
      6402      6400      6403      6405      6402      6400      6403      6406
      6408      6407      6411      6412      6408      6407      6411      6413
      6408      6407      6411      6414      6409      6407      6411      6412
      6409      6407      6411      6413      6409      6407      6411      6414
      6410      6407      6411      6412      6410      6407      6411      6413
      6410      6407      6411      6414      6407      6411      6414      6415
      6407      6411      6414      6416      6407      6411      6414      6417
      6412      6411      6414      6415      6412      6411      6414      6416
      6412      6411      6414      6417      6413      6411      6414      6415
      6413      6411      6414      6416      6413      6411      6414      6417
      6411      6414      6417      6418      6411      6414      6417      6419
      6411      6414      6417      6420      6415      6414      6417      6418
      6415      6414      6417      6419      6415      6414      6417      6420
      6416      6414      6417      6418      6416      6414      6417      6419
      6416      6414      6417      6420      6414      6417      6420      6421
      6414      6417      6420      6422      6414      6417      6420      6423
      6418      6417      6420      6421      6418      6417      6420      6422
      6418      6417      6420      6423      6419      6417      6420      6421
      6419      6417      6420      6422      6419      6417      6420      6423
      6417      6420      6423      6424      6417      6420      6423      6425
      6417      6420      6423      6426      6421      6420      6423      6424
      6421      6420      6423      6425      6421      6420      6423      6426
      6422      6420      6423      6424      6422      6420      6423      6425
      6422      6420      6423      6426      6420      6423      6426      6427
      6420      6423      6426      6428      6420      6423      6426      6429
      6424      6423      6426      6427      6424      6423      6426      6428
      6424      6423      6426      6429      6425      6423      6426      6427
      6425      6423      6426      6428      6425      6423      6426      6429
      6423      6426      6429      6430      6423      6426      6429      6431
      6423      6426      6429      6432      6427      6426      6429      6430
      6427      6426      6429      6431      6427      6426      6429      6432
      6428      6426      6429      6430      6428      6426      6429      6431
      6428      6426      6429      6432      6426      6429      6432      6433
      6426      6429      6432      6434      6426      6429      6432      6435
      6430      6429      6432      6433      6430      6429      6432      6434
      6430      6429      6432      6435      6431      6429      6432      6433
      6431      6429      6432      6434      6431      6429      6432      6435
      6429      6432      6435      6436      6429      6432      6435      6437
      6429      6432      6435      6438      6433      6432      6435      6436
      6433      6432      6435      6437      6433      6432      6435      6438
      6434      6432      6435      6436      6434      6432      6435      6437
      6434      6432      6435      6438      6432      6435      6438      6439
      6432      6435      6438      6440      6432      6435      6438      6441
      6436      6435      6438      6439      6436      6435      6438      6440
      6436      6435      6438      6441      6437      6435      6438      6439
      6437      6435      6438      6440      6437      6435      6438      6441
      6435      6438      6441      6442      6435      6438      6441      6443
      6435      6438      6441      6444      6439      6438      6441      6442
      6439      6438      6441      6443      6439      6438      6441      6444
      6440      6438      6441      6442      6440      6438      6441      6443
      6440      6438      6441      6444      6438      6441      6444      6445
      6438      6441      6444      6446      6438      6441      6444      6447
      6442      6441      6444      6445      6442      6441      6444      6446
      6442      6441      6444      6447      6443      6441      6444      6445
      6443      6441      6444      6446      6443      6441      6444      6447
      6441      6444      6447      6448      6441      6444      6447      6449
      6441      6444      6447      6450      6445      6444      6447      6448
      6445      6444      6447      6449      6445      6444      6447      6450
      6446      6444      6447      6448      6446      6444      6447      6449
      6446      6444      6447      6450      6444      6447      6450      6453
      6444      6447      6450      6451      6444      6447      6450      6452
      6448      6447      6450      6453      6448      6447      6450      6451
      6448      6447      6450      6452      6449      6447      6450      6453
      6449      6447      6450      6451      6449      6447      6450      6452
      6454      6453      6450      6447      6455      6453      6450      6447
      6454      6453      6450      6451      6455      6453      6450      6451
      6454      6453      6450      6452      6455      6453      6450      6452
      6450      6453      6455      6456      6454      6453      6455      6456
      6453      6455      6456      6457      6453      6455      6456      6458
      6453      6455      6456      6459      6455      6456      6459      6460
      6455      6456      6459      6461      6455      6456      6459      6488
      6457      6456      6459      6460      6457      6456      6459      6461
      6457      6456      6459      6488      6458      6456      6459      6460
      6458      6456      6459      6461      6458      6456      6459      6488
      6456      6459      6461      6462      6456      6459      6461      6463
      6456      6459      6461      6464      6456      6459      6488      6489
      6460      6459      6461      6462      6460      6459      6461      6463
      6460      6459      6461      6464      6460      6459      6488      6489
      6462      6461      6459      6488      6463      6461      6459      6488
      6464      6461      6459      6488      6461      6459      6488      6489
      6459      6461      6464      6465      6462      6461      6464      6465
      6463      6461      6464      6465      6461      6464      6465      6466
      6461      6464      6465      6486      6461      6464      6465      6487
      6464      6465      6466      6467      6467      6466      6465      6486
      6467      6466      6465      6487      6465      6466      6467      6468
      6465      6466      6467      6469      6465      6466      6467      6470
      6466      6467      6470      6471      6466      6467      6470      6472
      6466      6467      6470      6473      6468      6467      6470      6471
      6468      6467      6470      6472      6468      6467      6470      6473
      6469      6467      6470      6471      6469      6467      6470      6472
      6469      6467      6470      6473      6467      6470      6473      6474
      6467      6470      6473      6478      6467      6470      6473      6482
      6471      6470      6473      6474      6471      6470      6473      6478
      6471      6470      6473      6482      6472      6470      6473      6474
      6472      6470      6473      6478      6472      6470      6473      6482
      6470      6473      6474      6475      6470      6473      6474      6476
      6470      6473      6474      6477      6470      6473      6478      6479
      6470      6473      6478      6480      6470      6473      6478      6481
      6470      6473      6482      6483      6470      6473      6482      6484
      6470      6473      6482      6485      6475      6474      6473      6478
      6476      6474      6473      6478      6477      6474      6473      6478
      6474      6473      6478      6479      6474      6473      6478      6480
      6474      6473      6478      6481      6475      6474      6473      6482
      6476      6474      6473      6482      6477      6474      6473      6482
      6474      6473      6482      6483      6474      6473      6482      6484
      6474      6473      6482      6485      6479      6478      6473      6482
      6480      6478      6473      6482      6481      6478      6473      6482
      6478      6473      6482      6483      6478      6473      6482      6484
      6478      6473      6482      6485      6459      6488      6489      6491
      6459      6488      6489      6490      6492      6491      6489      6488
      6493      6491      6489      6488      6494      6491      6489      6488
      6492      6491      6489      6490      6493      6491      6489      6490
      6494      6491      6489      6490      6489      6491      6494      6495
      6489      6491      6494      6496      6489      6491      6494      6497
      6492      6491      6494      6495      6492      6491      6494      6496
      6492      6491      6494      6497      6493      6491      6494      6495
      6493      6491      6494      6496      6493      6491      6494      6497
      6491      6494      6497      6498      6491      6494      6497      6499
      6491      6494      6497      6500      6495      6494      6497      6498
      6495      6494      6497      6499      6495      6494      6497      6500
      6496      6494      6497      6498      6496      6494      6497      6499
      6496      6494      6497      6500      6494      6497      6500      6501
      6494      6497      6500      6502      6494      6497      6500      6503
      6498      6497      6500      6501      6498      6497      6500      6502
      6498      6497      6500      6503      6499      6497      6500      6501
      6499      6497      6500      6502      6499      6497      6500      6503
      6497      6500      6503      6504      6497      6500      6503      6505
      6497      6500      6503      6506      6501      6500      6503      6504
      6501      6500      6503      6505      6501      6500      6503      6506
      6502      6500      6503      6504      6502      6500      6503      6505
      6502      6500      6503      6506      6500      6503      6506      6507
      6500      6503      6506      6508      6500      6503      6506      6509
      6504      6503      6506      6507      6504      6503      6506      6508
      6504      6503      6506      6509      6505      6503      6506      6507
      6505      6503      6506      6508      6505      6503      6506      6509
      6503      6506      6509      6510      6503      6506      6509      6511
      6503      6506      6509      6512      6507      6506      6509      6510
      6507      6506      6509      6511      6507      6506      6509      6512
      6508      6506      6509      6510      6508      6506      6509      6511
      6508      6506      6509      6512      6506      6509      6512      6513
      6506      6509      6512      6514      6510      6509      6512      6513
      6510      6509      6512      6514      6511      6509      6512      6513
      6511      6509      6512      6514      6509      6512      6514      6515
      6509      6512      6514      6516      6513      6512      6514      6515
      6513      6512      6514      6516      6512      6514      6516      6517
      6512      6514      6516      6518      6512      6514      6516      6519
      6515      6514      6516      6517      6515      6514      6516      6518
      6515      6514      6516      6519      6514      6516      6519      6520
      6514      6516      6519      6521      6514      6516      6519      6522
      6517      6516      6519      6520      6517      6516      6519      6521
      6517      6516      6519      6522      6518      6516      6519      6520
      6518      6516      6519      6521      6518      6516      6519      6522
      6516      6519      6522      6523      6516      6519      6522      6524
      6516      6519      6522      6525      6520      6519      6522      6523
      6520      6519      6522      6524      6520      6519      6522      6525
      6521      6519      6522      6523      6521      6519      6522      6524
      6521      6519      6522      6525      6519      6522      6525      6526
      6519      6522      6525      6527      6519      6522      6525      6528
      6523      6522      6525      6526      6523      6522      6525      6527
      6523      6522      6525      6528      6524      6522      6525      6526
      6524      6522      6525      6527      6524      6522      6525      6528
      6522      6525      6528      6529      6522      6525      6528      6530
      6522      6525      6528      6531      6526      6525      6528      6529
      6526      6525      6528      6530      6526      6525      6528      6531
      6527      6525      6528      6529      6527      6525      6528      6530
      6527      6525      6528      6531      6525      6528      6531      6532
      6525      6528      6531      6533      6525      6528      6531      6534
      6529      6528      6531      6532      6529      6528      6531      6533
      6529      6528      6531      6534      6530      6528      6531      6532
      6530      6528      6531      6533      6530      6528      6531      6534
      6528      6531      6534      6535      6528      6531      6534      6536
      6528      6531      6534      6537      6532      6531      6534      6535
      6532      6531      6534      6536      6532      6531      6534      6537
      6533      6531      6534      6535      6533      6531      6534      6536
      6533      6531      6534      6537      6531      6534      6537      6538
      6531      6534      6537      6539      6531      6534      6537      6540
      6535      6534      6537      6538      6535      6534      6537      6539
      6535      6534      6537      6540      6536      6534      6537      6538
      6536      6534      6537      6539      6536      6534      6537      6540
      6542      6541      6545      6546      6542      6541      6545      6547
      6542      6541      6545      6548      6543      6541      6545      6546
      6543      6541      6545      6547      6543      6541      6545      6548
      6544      6541      6545      6546      6544      6541      6545      6547
      6544      6541      6545      6548      6541      6545      6548      6549
      6541      6545      6548      6550      6541      6545      6548      6551
      6546      6545      6548      6549      6546      6545      6548      6550
      6546      6545      6548      6551      6547      6545      6548      6549
      6547      6545      6548      6550      6547      6545      6548      6551
      6545      6548      6551      6552      6545      6548      6551      6553
      6545      6548      6551      6554      6549      6548      6551      6552
      6549      6548      6551      6553      6549      6548      6551      6554
      6550      6548      6551      6552      6550      6548      6551      6553
      6550      6548      6551      6554      6548      6551      6554      6555
      6548      6551      6554      6556      6548      6551      6554      6557
      6552      6551      6554      6555      6552      6551      6554      6556
      6552      6551      6554      6557      6553      6551      6554      6555
      6553      6551      6554      6556      6553      6551      6554      6557
      6551      6554      6557      6558      6551      6554      6557      6559
      6551      6554      6557      6560      6555      6554      6557      6558
      6555      6554      6557      6559      6555      6554      6557      6560
      6556      6554      6557      6558      6556      6554      6557      6559
      6556      6554      6557      6560      6554      6557      6560      6561
      6554      6557      6560      6562      6554      6557      6560      6563
      6558      6557      6560      6561      6558      6557      6560      6562
      6558      6557      6560      6563      6559      6557      6560      6561
      6559      6557      6560      6562      6559      6557      6560      6563
      6557      6560      6563      6564      6557      6560      6563      6565
      6557      6560      6563      6566      6561      6560      6563      6564
      6561      6560      6563      6565      6561      6560      6563      6566
      6562      6560      6563      6564      6562      6560      6563      6565
      6562      6560      6563      6566      6560      6563      6566      6567
      6560      6563      6566      6568      6560      6563      6566      6569
      6564      6563      6566      6567      6564      6563      6566      6568
      6564      6563      6566      6569      6565      6563      6566      6567
      6565      6563      6566      6568      6565      6563      6566      6569
      6563      6566      6569      6570      6563      6566      6569      6571
      6563      6566      6569      6572      6567      6566      6569      6570
      6567      6566      6569      6571      6567      6566      6569      6572
      6568      6566      6569      6570      6568      6566      6569      6571
      6568      6566      6569      6572      6566      6569      6572      6573
      6566      6569      6572      6574      6566      6569      6572      6575
      6570      6569      6572      6573      6570      6569      6572      6574
      6570      6569      6572      6575      6571      6569      6572      6573
      6571      6569      6572      6574      6571      6569      6572      6575
      6569      6572      6575      6576      6569      6572      6575      6577
      6569      6572      6575      6578      6573      6572      6575      6576
      6573      6572      6575      6577      6573      6572      6575      6578
      6574      6572      6575      6576      6574      6572      6575      6577
      6574      6572      6575      6578      6572      6575      6578      6579
      6572      6575      6578      6580      6572      6575      6578      6581
      6576      6575      6578      6579      6576      6575      6578      6580
      6576      6575      6578      6581      6577      6575      6578      6579
      6577      6575      6578      6580      6577      6575      6578      6581
      6575      6578      6581      6582      6575      6578      6581      6583
      6575      6578      6581      6584      6579      6578      6581      6582
      6579      6578      6581      6583      6579      6578      6581      6584
      6580      6578      6581      6582      6580      6578      6581      6583
      6580      6578      6581      6584      6578      6581      6584      6587
      6578      6581      6584      6585      6578      6581      6584      6586
      6582      6581      6584      6587      6582      6581      6584      6585
      6582      6581      6584      6586      6583      6581      6584      6587
      6583      6581      6584      6585      6583      6581      6584      6586
      6588      6587      6584      6581      6589      6587      6584      6581
      6588      6587      6584      6585      6589      6587      6584      6585
      6588      6587      6584      6586      6589      6587      6584      6586
      6584      6587      6589      6590      6588      6587      6589      6590
      6587      6589      6590      6591      6587      6589      6590      6592
      6587      6589      6590      6593      6589      6590      6593      6594
      6589      6590      6593      6595      6589      6590      6593      6622
      6591      6590      6593      6594      6591      6590      6593      6595
      6591      6590      6593      6622      6592      6590      6593      6594
      6592      6590      6593      6595      6592      6590      6593      6622
      6590      6593      6595      6596      6590      6593      6595      6597
      6590      6593      6595      6598      6590      6593      6622      6623
      6594      6593      6595      6596      6594      6593      6595      6597
      6594      6593      6595      6598      6594      6593      6622      6623
      6596      6595      6593      6622      6597      6595      6593      6622
      6598      6595      6593      6622      6595      6593      6622      6623
      6593      6595      6598      6599      6596      6595      6598      6599
      6597      6595      6598      6599      6595      6598      6599      6600
      6595      6598      6599      6620      6595      6598      6599      6621
      6598      6599      6600      6601      6601      6600      6599      6620
      6601      6600      6599      6621      6599      6600      6601      6602
      6599      6600      6601      6603      6599      6600      6601      6604
      6600      6601      6604      6605      6600      6601      6604      6606
      6600      6601      6604      6607      6602      6601      6604      6605
      6602      6601      6604      6606      6602      6601      6604      6607
      6603      6601      6604      6605      6603      6601      6604      6606
      6603      6601      6604      6607      6601      6604      6607      6608
      6601      6604      6607      6612      6601      6604      6607      6616
      6605      6604      6607      6608      6605      6604      6607      6612
      6605      6604      6607      6616      6606      6604      6607      6608
      6606      6604      6607      6612      6606      6604      6607      6616
      6604      6607      6608      6609      6604      6607      6608      6610
      6604      6607      6608      6611      6604      6607      6612      6613
      6604      6607      6612      6614      6604      6607      6612      6615
      6604      6607      6616      6617      6604      6607      6616      6618
      6604      6607      6616      6619      6609      6608      6607      6612
      6610      6608      6607      6612      6611      6608      6607      6612
      6608      6607      6612      6613      6608      6607      6612      6614
      6608      6607      6612      6615      6609      6608      6607      6616
      6610      6608      6607      6616      6611      6608      6607      6616
      6608      6607      6616      6617      6608      6607      6616      6618
      6608      6607      6616      6619      6613      6612      6607      6616
      6614      6612      6607      6616      6615      6612      6607      6616
      6612      6607      6616      6617      6612      6607      6616      6618
      6612      6607      6616      6619      6593      6622      6623      6625
      6593      6622      6623      6624      6626      6625      6623      6622
      6627      6625      6623      6622      6628      6625      6623      6622
      6626      6625      6623      6624      6627      6625      6623      6624
      6628      6625      6623      6624      6623      6625      6628      6629
      6623      6625      6628      6630      6623      6625      6628      6631
      6626      6625      6628      6629      6626      6625      6628      6630
      6626      6625      6628      6631      6627      6625      6628      6629
      6627      6625      6628      6630      6627      6625      6628      6631
      6625      6628      6631      6632      6625      6628      6631      6633
      6625      6628      6631      6634      6629      6628      6631      6632
      6629      6628      6631      6633      6629      6628      6631      6634
      6630      6628      6631      6632      6630      6628      6631      6633
      6630      6628      6631      6634      6628      6631      6634      6635
      6628      6631      6634      6636      6628      6631      6634      6637
      6632      6631      6634      6635      6632      6631      6634      6636
      6632      6631      6634      6637      6633      6631      6634      6635
      6633      6631      6634      6636      6633      6631      6634      6637
      6631      6634      6637      6638      6631      6634      6637      6639
      6631      6634      6637      6640      6635      6634      6637      6638
      6635      6634      6637      6639      6635      6634      6637      6640
      6636      6634      6637      6638      6636      6634      6637      6639
      6636      6634      6637      6640      6634      6637      6640      6641
      6634      6637      6640      6642      6634      6637      6640      6643
      6638      6637      6640      6641      6638      6637      6640      6642
      6638      6637      6640      6643      6639      6637      6640      6641
      6639      6637      6640      6642      6639      6637      6640      6643
      6637      6640      6643      6644      6637      6640      6643      6645
      6637      6640      6643      6646      6641      6640      6643      6644
      6641      6640      6643      6645      6641      6640      6643      6646
      6642      6640      6643      6644      6642      6640      6643      6645
      6642      6640      6643      6646      6640      6643      6646      6647
      6640      6643      6646      6648      6644      6643      6646      6647
      6644      6643      6646      6648      6645      6643      6646      6647
      6645      6643      6646      6648      6643      6646      6648      6649
      6643      6646      6648      6650      6647      6646      6648      6649
      6647      6646      6648      6650      6646      6648      6650      6651
      6646      6648      6650      6652      6646      6648      6650      6653
      6649      6648      6650      6651      6649      6648      6650      6652
      6649      6648      6650      6653      6648      6650      6653      6654
      6648      6650      6653      6655      6648      6650      6653      6656
      6651      6650      6653      6654      6651      6650      6653      6655
      6651      6650      6653      6656      6652      6650      6653      6654
      6652      6650      6653      6655      6652      6650      6653      6656
      6650      6653      6656      6657      6650      6653      6656      6658
      6650      6653      6656      6659      6654      6653      6656      6657
      6654      6653      6656      6658      6654      6653      6656      6659
      6655      6653      6656      6657      6655      6653      6656      6658
      6655      6653      6656      6659      6653      6656      6659      6660
      6653      6656      6659      6661      6653      6656      6659      6662
      6657      6656      6659      6660      6657      6656      6659      6661
      6657      6656      6659      6662      6658      6656      6659      6660
      6658      6656      6659      6661      6658      6656      6659      6662
      6656      6659      6662      6663      6656      6659      6662      6664
      6656      6659      6662      6665      6660      6659      6662      6663
      6660      6659      6662      6664      6660      6659      6662      6665
      6661      6659      6662      6663      6661      6659      6662      6664
      6661      6659      6662      6665      6659      6662      6665      6666
      6659      6662      6665      6667      6659      6662      6665      6668
      6663      6662      6665      6666      6663      6662      6665      6667
      6663      6662      6665      6668      6664      6662      6665      6666
      6664      6662      6665      6667      6664      6662      6665      6668
      6662      6665      6668      6669      6662      6665      6668      6670
      6662      6665      6668      6671      6666      6665      6668      6669
      6666      6665      6668      6670      6666      6665      6668      6671
      6667      6665      6668      6669      6667      6665      6668      6670
      6667      6665      6668      6671      6665      6668      6671      6672
      6665      6668      6671      6673      6665      6668      6671      6674
      6669      6668      6671      6672      6669      6668      6671      6673
      6669      6668      6671      6674      6670      6668      6671      6672
      6670      6668      6671      6673      6670      6668      6671      6674
      6676      6675      6679      6680      6676      6675      6679      6681
      6676      6675      6679      6682      6677      6675      6679      6680
      6677      6675      6679      6681      6677      6675      6679      6682
      6678      6675      6679      6680      6678      6675      6679      6681
      6678      6675      6679      6682      6675      6679      6682      6683
      6675      6679      6682      6684      6675      6679      6682      6685
      6680      6679      6682      6683      6680      6679      6682      6684
      6680      6679      6682      6685      6681      6679      6682      6683
      6681      6679      6682      6684      6681      6679      6682      6685
      6679      6682      6685      6686      6679      6682      6685      6687
      6679      6682      6685      6688      6683      6682      6685      6686
      6683      6682      6685      6687      6683      6682      6685      6688
      6684      6682      6685      6686      6684      6682      6685      6687
      6684      6682      6685      6688      6682      6685      6688      6689
      6682      6685      6688      6690      6682      6685      6688      6691
      6686      6685      6688      6689      6686      6685      6688      6690
      6686      6685      6688      6691      6687      6685      6688      6689
      6687      6685      6688      6690      6687      6685      6688      6691
      6685      6688      6691      6692      6685      6688      6691      6693
      6685      6688      6691      6694      6689      6688      6691      6692
      6689      6688      6691      6693      6689      6688      6691      6694
      6690      6688      6691      6692      6690      6688      6691      6693
      6690      6688      6691      6694      6688      6691      6694      6695
      6688      6691      6694      6696      6688      6691      6694      6697
      6692      6691      6694      6695      6692      6691      6694      6696
      6692      6691      6694      6697      6693      6691      6694      6695
      6693      6691      6694      6696      6693      6691      6694      6697
      6691      6694      6697      6698      6691      6694      6697      6699
      6691      6694      6697      6700      6695      6694      6697      6698
      6695      6694      6697      6699      6695      6694      6697      6700
      6696      6694      6697      6698      6696      6694      6697      6699
      6696      6694      6697      6700      6694      6697      6700      6701
      6694      6697      6700      6702      6694      6697      6700      6703
      6698      6697      6700      6701      6698      6697      6700      6702
      6698      6697      6700      6703      6699      6697      6700      6701
      6699      6697      6700      6702      6699      6697      6700      6703
      6697      6700      6703      6704      6697      6700      6703      6705
      6697      6700      6703      6706      6701      6700      6703      6704
      6701      6700      6703      6705      6701      6700      6703      6706
      6702      6700      6703      6704      6702      6700      6703      6705
      6702      6700      6703      6706      6700      6703      6706      6707
      6700      6703      6706      6708      6700      6703      6706      6709
      6704      6703      6706      6707      6704      6703      6706      6708
      6704      6703      6706      6709      6705      6703      6706      6707
      6705      6703      6706      6708      6705      6703      6706      6709
      6703      6706      6709      6710      6703      6706      6709      6711
      6703      6706      6709      6712      6707      6706      6709      6710
      6707      6706      6709      6711      6707      6706      6709      6712
      6708      6706      6709      6710      6708      6706      6709      6711
      6708      6706      6709      6712      6706      6709      6712      6713
      6706      6709      6712      6714      6706      6709      6712      6715
      6710      6709      6712      6713      6710      6709      6712      6714
      6710      6709      6712      6715      6711      6709      6712      6713
      6711      6709      6712      6714      6711      6709      6712      6715
      6709      6712      6715      6716      6709      6712      6715      6717
      6709      6712      6715      6718      6713      6712      6715      6716
      6713      6712      6715      6717      6713      6712      6715      6718
      6714      6712      6715      6716      6714      6712      6715      6717
      6714      6712      6715      6718      6712      6715      6718      6721
      6712      6715      6718      6719      6712      6715      6718      6720
      6716      6715      6718      6721      6716      6715      6718      6719
      6716      6715      6718      6720      6717      6715      6718      6721
      6717      6715      6718      6719      6717      6715      6718      6720
      6722      6721      6718      6715      6723      6721      6718      6715
      6722      6721      6718      6719      6723      6721      6718      6719
      6722      6721      6718      6720      6723      6721      6718      6720
      6718      6721      6723      6724      6722      6721      6723      6724
      6721      6723      6724      6725      6721      6723      6724      6726
      6721      6723      6724      6727      6723      6724      6727      6728
      6723      6724      6727      6729      6723      6724      6727      6756
      6725      6724      6727      6728      6725      6724      6727      6729
      6725      6724      6727      6756      6726      6724      6727      6728
      6726      6724      6727      6729      6726      6724      6727      6756
      6724      6727      6729      6730      6724      6727      6729      6731
      6724      6727      6729      6732      6724      6727      6756      6757
      6728      6727      6729      6730      6728      6727      6729      6731
      6728      6727      6729      6732      6728      6727      6756      6757
      6730      6729      6727      6756      6731      6729      6727      6756
      6732      6729      6727      6756      6729      6727      6756      6757
      6727      6729      6732      6733      6730      6729      6732      6733
      6731      6729      6732      6733      6729      6732      6733      6734
      6729      6732      6733      6754      6729      6732      6733      6755
      6732      6733      6734      6735      6735      6734      6733      6754
      6735      6734      6733      6755      6733      6734      6735      6736
      6733      6734      6735      6737      6733      6734      6735      6738
      6734      6735      6738      6739      6734      6735      6738      6740
      6734      6735      6738      6741      6736      6735      6738      6739
      6736      6735      6738      6740      6736      6735      6738      6741
      6737      6735      6738      6739      6737      6735      6738      6740
      6737      6735      6738      6741      6735      6738      6741      6742
      6735      6738      6741      6746      6735      6738      6741      6750
      6739      6738      6741      6742      6739      6738      6741      6746
      6739      6738      6741      6750      6740      6738      6741      6742
      6740      6738      6741      6746      6740      6738      6741      6750
      6738      6741      6742      6743      6738      6741      6742      6744
      6738      6741      6742      6745      6738      6741      6746      6747
      6738      6741      6746      6748      6738      6741      6746      6749
      6738      6741      6750      6751      6738      6741      6750      6752
      6738      6741      6750      6753      6743      6742      6741      6746
      6744      6742      6741      6746      6745      6742      6741      6746
      6742      6741      6746      6747      6742      6741      6746      6748
      6742      6741      6746      6749      6743      6742      6741      6750
      6744      6742      6741      6750      6745      6742      6741      6750
      6742      6741      6750      6751      6742      6741      6750      6752
      6742      6741      6750      6753      6747      6746      6741      6750
      6748      6746      6741      6750      6749      6746      6741      6750
      6746      6741      6750      6751      6746      6741      6750      6752
      6746      6741      6750      6753      6727      6756      6757      6759
      6727      6756      6757      6758      6760      6759      6757      6756
      6761      6759      6757      6756      6762      6759      6757      6756
      6760      6759      6757      6758      6761      6759      6757      6758
      6762      6759      6757      6758      6757      6759      6762      6763
      6757      6759      6762      6764      6757      6759      6762      6765
      6760      6759      6762      6763      6760      6759      6762      6764
      6760      6759      6762      6765      6761      6759      6762      6763
      6761      6759      6762      6764      6761      6759      6762      6765
      6759      6762      6765      6766      6759      6762      6765      6767
      6759      6762      6765      6768      6763      6762      6765      6766
      6763      6762      6765      6767      6763      6762      6765      6768
      6764      6762      6765      6766      6764      6762      6765      6767
      6764      6762      6765      6768      6762      6765      6768      6769
      6762      6765      6768      6770      6762      6765      6768      6771
      6766      6765      6768      6769      6766      6765      6768      6770
      6766      6765      6768      6771      6767      6765      6768      6769
      6767      6765      6768      6770      6767      6765      6768      6771
      6765      6768      6771      6772      6765      6768      6771      6773
      6765      6768      6771      6774      6769      6768      6771      6772
      6769      6768      6771      6773      6769      6768      6771      6774
      6770      6768      6771      6772      6770      6768      6771      6773
      6770      6768      6771      6774      6768      6771      6774      6775
      6768      6771      6774      6776      6768      6771      6774      6777
      6772      6771      6774      6775      6772      6771      6774      6776
      6772      6771      6774      6777      6773      6771      6774      6775
      6773      6771      6774      6776      6773      6771      6774      6777
      6771      6774      6777      6778      6771      6774      6777      6779
      6771      6774      6777      6780      6775      6774      6777      6778
      6775      6774      6777      6779      6775      6774      6777      6780
      6776      6774      6777      6778      6776      6774      6777      6779
      6776      6774      6777      6780      6774      6777      6780      6781
      6774      6777      6780      6782      6778      6777      6780      6781
      6778      6777      6780      6782      6779      6777      6780      6781
      6779      6777      6780      6782      6777      6780      6782      6783
      6777      6780      6782      6784      6781      6780      6782      6783
      6781      6780      6782      6784      6780      6782      6784      6785
      6780      6782      6784      6786      6780      6782      6784      6787
      6783      6782      6784      6785      6783      6782      6784      6786
      6783      6782      6784      6787      6782      6784      6787      6788
      6782      6784      6787      6789      6782      6784      6787      6790
      6785      6784      6787      6788      6785      6784      6787      6789
      6785      6784      6787      6790      6786      6784      6787      6788
      6786      6784      6787      6789      6786      6784      6787      6790
      6784      6787      6790      6791      6784      6787      6790      6792
      6784      6787      6790      6793      6788      6787      6790      6791
      6788      6787      6790      6792      6788      6787      6790      6793
      6789      6787      6790      6791      6789      6787      6790      6792
      6789      6787      6790      6793      6787      6790      6793      6794
      6787      6790      6793      6795      6787      6790      6793      6796
      6791      6790      6793      6794      6791      6790      6793      6795
      6791      6790      6793      6796      6792      6790      6793      6794
      6792      6790      6793      6795      6792      6790      6793      6796
      6790      6793      6796      6797      6790      6793      6796      6798
      6790      6793      6796      6799      6794      6793      6796      6797
      6794      6793      6796      6798      6794      6793      6796      6799
      6795      6793      6796      6797      6795      6793      6796      6798
      6795      6793      6796      6799      6793      6796      6799      6800
      6793      6796      6799      6801      6793      6796      6799      6802
      6797      6796      6799      6800      6797      6796      6799      6801
      6797      6796      6799      6802      6798      6796      6799      6800
      6798      6796      6799      6801      6798      6796      6799      6802
      6796      6799      6802      6803      6796      6799      6802      6804
      6796      6799      6802      6805      6800      6799      6802      6803
      6800      6799      6802      6804      6800      6799      6802      6805
      6801      6799      6802      6803      6801      6799      6802      6804
      6801      6799      6802      6805      6799      6802      6805      6806
      6799      6802      6805      6807      6799      6802      6805      6808
      6803      6802      6805      6806      6803      6802      6805      6807
      6803      6802      6805      6808      6804      6802      6805      6806
      6804      6802      6805      6807      6804      6802      6805      6808
      6810      6809      6813      6814      6810      6809      6813      6815
      6810      6809      6813      6816      6811      6809      6813      6814
      6811      6809      6813      6815      6811      6809      6813      6816
      6812      6809      6813      6814      6812      6809      6813      6815
      6812      6809      6813      6816      6809      6813      6816      6817
      6809      6813      6816      6818      6809      6813      6816      6819
      6814      6813      6816      6817      6814      6813      6816      6818
      6814      6813      6816      6819      6815      6813      6816      6817
      6815      6813      6816      6818      6815      6813      6816      6819
      6813      6816      6819      6820      6813      6816      6819      6821
      6813      6816      6819      6822      6817      6816      6819      6820
      6817      6816      6819      6821      6817      6816      6819      6822
      6818      6816      6819      6820      6818      6816      6819      6821
      6818      6816      6819      6822      6816      6819      6822      6823
      6816      6819      6822      6824      6816      6819      6822      6825
      6820      6819      6822      6823      6820      6819      6822      6824
      6820      6819      6822      6825      6821      6819      6822      6823
      6821      6819      6822      6824      6821      6819      6822      6825
      6819      6822      6825      6826      6819      6822      6825      6827
      6819      6822      6825      6828      6823      6822      6825      6826
      6823      6822      6825      6827      6823      6822      6825      6828
      6824      6822      6825      6826      6824      6822      6825      6827
      6824      6822      6825      6828      6822      6825      6828      6829
      6822      6825      6828      6830      6822      6825      6828      6831
      6826      6825      6828      6829      6826      6825      6828      6830
      6826      6825      6828      6831      6827      6825      6828      6829
      6827      6825      6828      6830      6827      6825      6828      6831
      6825      6828      6831      6832      6825      6828      6831      6833
      6825      6828      6831      6834      6829      6828      6831      6832
      6829      6828      6831      6833      6829      6828      6831      6834
      6830      6828      6831      6832      6830      6828      6831      6833
      6830      6828      6831      6834      6828      6831      6834      6835
      6828      6831      6834      6836      6828      6831      6834      6837
      6832      6831      6834      6835      6832      6831      6834      6836
      6832      6831      6834      6837      6833      6831      6834      6835
      6833      6831      6834      6836      6833      6831      6834      6837
      6831      6834      6837      6838      6831      6834      6837      6839
      6831      6834      6837      6840      6835      6834      6837      6838
      6835      6834      6837      6839      6835      6834      6837      6840
      6836      6834      6837      6838      6836      6834      6837      6839
      6836      6834      6837      6840      6834      6837      6840      6841
      6834      6837      6840      6842      6834      6837      6840      6843
      6838      6837      6840      6841      6838      6837      6840      6842
      6838      6837      6840      6843      6839      6837      6840      6841
      6839      6837      6840      6842      6839      6837      6840      6843
      6837      6840      6843      6844      6837      6840      6843      6845
      6837      6840      6843      6846      6841      6840      6843      6844
      6841      6840      6843      6845      6841      6840      6843      6846
      6842      6840      6843      6844      6842      6840      6843      6845
      6842      6840      6843      6846      6840      6843      6846      6847
      6840      6843      6846      6848      6840      6843      6846      6849
      6844      6843      6846      6847      6844      6843      6846      6848
      6844      6843      6846      6849      6845      6843      6846      6847
      6845      6843      6846      6848      6845      6843      6846      6849
      6843      6846      6849      6850      6843      6846      6849      6851
      6843      6846      6849      6852      6847      6846      6849      6850
      6847      6846      6849      6851      6847      6846      6849      6852
      6848      6846      6849      6850      6848      6846      6849      6851
      6848      6846      6849      6852      6846      6849      6852      6855
      6846      6849      6852      6853      6846      6849      6852      6854
      6850      6849      6852      6855      6850      6849      6852      6853
      6850      6849      6852      6854      6851      6849      6852      6855
      6851      6849      6852      6853      6851      6849      6852      6854
      6856      6855      6852      6849      6857      6855      6852      6849
      6856      6855      6852      6853      6857      6855      6852      6853
      6856      6855      6852      6854      6857      6855      6852      6854
      6852      6855      6857      6858      6856      6855      6857      6858
      6855      6857      6858      6859      6855      6857      6858      6860
      6855      6857      6858      6861      6857      6858      6861      6862
      6857      6858      6861      6863      6857      6858      6861      6890
      6859      6858      6861      6862      6859      6858      6861      6863
      6859      6858      6861      6890      6860      6858      6861      6862
      6860      6858      6861      6863      6860      6858      6861      6890
      6858      6861      6863      6864      6858      6861      6863      6865
      6858      6861      6863      6866      6858      6861      6890      6891
      6862      6861      6863      6864      6862      6861      6863      6865
      6862      6861      6863      6866      6862      6861      6890      6891
      6864      6863      6861      6890      6865      6863      6861      6890
      6866      6863      6861      6890      6863      6861      6890      6891
      6861      6863      6866      6867      6864      6863      6866      6867
      6865      6863      6866      6867      6863      6866      6867      6868
      6863      6866      6867      6888      6863      6866      6867      6889
      6866      6867      6868      6869      6869      6868      6867      6888
      6869      6868      6867      6889      6867      6868      6869      6870
      6867      6868      6869      6871      6867      6868      6869      6872
      6868      6869      6872      6873      6868      6869      6872      6874
      6868      6869      6872      6875      6870      6869      6872      6873
      6870      6869      6872      6874      6870      6869      6872      6875
      6871      6869      6872      6873      6871      6869      6872      6874
      6871      6869      6872      6875      6869      6872      6875      6876
      6869      6872      6875      6880      6869      6872      6875      6884
      6873      6872      6875      6876      6873      6872      6875      6880
      6873      6872      6875      6884      6874      6872      6875      6876
      6874      6872      6875      6880      6874      6872      6875      6884
      6872      6875      6876      6877      6872      6875      6876      6878
      6872      6875      6876      6879      6872      6875      6880      6881
      6872      6875      6880      6882      6872      6875      6880      6883
      6872      6875      6884      6885      6872      6875      6884      6886
      6872      6875      6884      6887      6877      6876      6875      6880
      6878      6876      6875      6880      6879      6876      6875      6880
      6876      6875      6880      6881      6876      6875      6880      6882
      6876      6875      6880      6883      6877      6876      6875      6884
      6878      6876      6875      6884      6879      6876      6875      6884
      6876      6875      6884      6885      6876      6875      6884      6886
      6876      6875      6884      6887      6881      6880      6875      6884
      6882      6880      6875      6884      6883      6880      6875      6884
      6880      6875      6884      6885      6880      6875      6884      6886
      6880      6875      6884      6887      6861      6890      6891      6893
      6861      6890      6891      6892      6894      6893      6891      6890
      6895      6893      6891      6890      6896      6893      6891      6890
      6894      6893      6891      6892      6895      6893      6891      6892
      6896      6893      6891      6892      6891      6893      6896      6897
      6891      6893      6896      6898      6891      6893      6896      6899
      6894      6893      6896      6897      6894      6893      6896      6898
      6894      6893      6896      6899      6895      6893      6896      6897
      6895      6893      6896      6898      6895      6893      6896      6899
      6893      6896      6899      6900      6893      6896      6899      6901
      6893      6896      6899      6902      6897      6896      6899      6900
      6897      6896      6899      6901      6897      6896      6899      6902
      6898      6896      6899      6900      6898      6896      6899      6901
      6898      6896      6899      6902      6896      6899      6902      6903
      6896      6899      6902      6904      6896      6899      6902      6905
      6900      6899      6902      6903      6900      6899      6902      6904
      6900      6899      6902      6905      6901      6899      6902      6903
      6901      6899      6902      6904      6901      6899      6902      6905
      6899      6902      6905      6906      6899      6902      6905      6907
      6899      6902      6905      6908      6903      6902      6905      6906
      6903      6902      6905      6907      6903      6902      6905      6908
      6904      6902      6905      6906      6904      6902      6905      6907
      6904      6902      6905      6908      6902      6905      6908      6909
      6902      6905      6908      6910      6902      6905      6908      6911
      6906      6905      6908      6909      6906      6905      6908      6910
      6906      6905      6908      6911      6907      6905      6908      6909
      6907      6905      6908      6910      6907      6905      6908      6911
      6905      6908      6911      6912      6905      6908      6911      6913
      6905      6908      6911      6914      6909      6908      6911      6912
      6909      6908      6911      6913      6909      6908      6911      6914
      6910      6908      6911      6912      6910      6908      6911      6913
      6910      6908      6911      6914      6908      6911      6914      6915
      6908      6911      6914      6916      6912      6911      6914      6915
      6912      6911      6914      6916      6913      6911      6914      6915
      6913      6911      6914      6916      6911      6914      6916      6917
      6911      6914      6916      6918      6915      6914      6916      6917
      6915      6914      6916      6918      6914      6916      6918      6919
      6914      6916      6918      6920      6914      6916      6918      6921
      6917      6916      6918      6919      6917      6916      6918      6920
      6917      6916      6918      6921      6916      6918      6921      6922
      6916      6918      6921      6923      6916      6918      6921      6924
      6919      6918      6921      6922      6919      6918      6921      6923
      6919      6918      6921      6924      6920      6918      6921      6922
      6920      6918      6921      6923      6920      6918      6921      6924
      6918      6921      6924      6925      6918      6921      6924      6926
      6918      6921      6924      6927      6922      6921      6924      6925
      6922      6921      6924      6926      6922      6921      6924      6927
      6923      6921      6924      6925      6923      6921      6924      6926
      6923      6921      6924      6927      6921      6924      6927      6928
      6921      6924      6927      6929      6921      6924      6927      6930
      6925      6924      6927      6928      6925      6924      6927      6929
      6925      6924      6927      6930      6926      6924      6927      6928
      6926      6924      6927      6929      6926      6924      6927      6930
      6924      6927      6930      6931      6924      6927      6930      6932
      6924      6927      6930      6933      6928      6927      6930      6931
      6928      6927      6930      6932      6928      6927      6930      6933
      6929      6927      6930      6931      6929      6927      6930      6932
      6929      6927      6930      6933      6927      6930      6933      6934
      6927      6930      6933      6935      6927      6930      6933      6936
      6931      6930      6933      6934      6931      6930      6933      6935
      6931      6930      6933      6936      6932      6930      6933      6934
      6932      6930      6933      6935      6932      6930      6933      6936
      6930      6933      6936      6937      6930      6933      6936      6938
      6930      6933      6936      6939      6934      6933      6936      6937
      6934      6933      6936      6938      6934      6933      6936      6939
      6935      6933      6936      6937      6935      6933      6936      6938
      6935      6933      6936      6939      6933      6936      6939      6940
      6933      6936      6939      6941      6933      6936      6939      6942
      6937      6936      6939      6940      6937      6936      6939      6941
      6937      6936      6939      6942      6938      6936      6939      6940
      6938      6936      6939      6941      6938      6936      6939      6942
      6944      6943      6947      6948      6944      6943      6947      6949
      6944      6943      6947      6950      6945      6943      6947      6948
      6945      6943      6947      6949      6945      6943      6947      6950
      6946      6943      6947      6948      6946      6943      6947      6949
      6946      6943      6947      6950      6943      6947      6950      6951
      6943      6947      6950      6952      6943      6947      6950      6953
      6948      6947      6950      6951      6948      6947      6950      6952
      6948      6947      6950      6953      6949      6947      6950      6951
      6949      6947      6950      6952      6949      6947      6950      6953
      6947      6950      6953      6954      6947      6950      6953      6955
      6947      6950      6953      6956      6951      6950      6953      6954
      6951      6950      6953      6955      6951      6950      6953      6956
      6952      6950      6953      6954      6952      6950      6953      6955
      6952      6950      6953      6956      6950      6953      6956      6957
      6950      6953      6956      6958      6950      6953      6956      6959
      6954      6953      6956      6957      6954      6953      6956      6958
      6954      6953      6956      6959      6955      6953      6956      6957
      6955      6953      6956      6958      6955      6953      6956      6959
      6953      6956      6959      6960      6953      6956      6959      6961
      6953      6956      6959      6962      6957      6956      6959      6960
      6957      6956      6959      6961      6957      6956      6959      6962
      6958      6956      6959      6960      6958      6956      6959      6961
      6958      6956      6959      6962      6956      6959      6962      6963
      6956      6959      6962      6964      6956      6959      6962      6965
      6960      6959      6962      6963      6960      6959      6962      6964
      6960      6959      6962      6965      6961      6959      6962      6963
      6961      6959      6962      6964      6961      6959      6962      6965
      6959      6962      6965      6966      6959      6962      6965      6967
      6959      6962      6965      6968      6963      6962      6965      6966
      6963      6962      6965      6967      6963      6962      6965      6968
      6964      6962      6965      6966      6964      6962      6965      6967
      6964      6962      6965      6968      6962      6965      6968      6969
      6962      6965      6968      6970      6962      6965      6968      6971
      6966      6965      6968      6969      6966      6965      6968      6970
      6966      6965      6968      6971      6967      6965      6968      6969
      6967      6965      6968      6970      6967      6965      6968      6971
      6965      6968      6971      6972      6965      6968      6971      6973
      6965      6968      6971      6974      6969      6968      6971      6972
      6969      6968      6971      6973      6969      6968      6971      6974
      6970      6968      6971      6972      6970      6968      6971      6973
      6970      6968      6971      6974      6968      6971      6974      6975
      6968      6971      6974      6976      6968      6971      6974      6977
      6972      6971      6974      6975      6972      6971      6974      6976
      6972      6971      6974      6977      6973      6971      6974      6975
      6973      6971      6974      6976      6973      6971      6974      6977
      6971      6974      6977      6978      6971      6974      6977      6979
      6971      6974      6977      6980      6975      6974      6977      6978
      6975      6974      6977      6979      6975      6974      6977      6980
      6976      6974      6977      6978      6976      6974      6977      6979
      6976      6974      6977      6980      6974      6977      6980      6981
      6974      6977      6980      6982      6974      6977      6980      6983
      6978      6977      6980      6981      6978      6977      6980      6982
      6978      6977      6980      6983      6979      6977      6980      6981
      6979      6977      6980      6982      6979      6977      6980      6983
      6977      6980      6983      6984      6977      6980      6983      6985
      6977      6980      6983      6986      6981      6980      6983      6984
      6981      6980      6983      6985      6981      6980      6983      6986
      6982      6980      6983      6984      6982      6980      6983      6985
      6982      6980      6983      6986      6980      6983      6986      6989
      6980      6983      6986      6987      6980      6983      6986      6988
      6984      6983      6986      6989      6984      6983      6986      6987
      6984      6983      6986      6988      6985      6983      6986      6989
      6985      6983      6986      6987      6985      6983      6986      6988
      6990      6989      6986      6983      6991      6989      6986      6983
      6990      6989      6986      6987      6991      6989      6986      6987
      6990      6989      6986      6988      6991      6989      6986      6988
      6986      6989      6991      6992      6990      6989      6991      6992
      6989      6991      6992      6993      6989      6991      6992      6994
      6989      6991      6992      6995      6991      6992      6995      6996
      6991      6992      6995      6997      6991      6992      6995      7024
      6993      6992      6995      6996      6993      6992      6995      6997
      6993      6992      6995      7024      6994      6992      6995      6996
      6994      6992      6995      6997      6994      6992      6995      7024
      6992      6995      6997      6998      6992      6995      6997      6999
      6992      6995      6997      7000      6992      6995      7024      7025
      6996      6995      6997      6998      6996      6995      6997      6999
      6996      6995      6997      7000      6996      6995      7024      7025
      6998      6997      6995      7024      6999      6997      6995      7024
      7000      6997      6995      7024      6997      6995      7024      7025
      6995      6997      7000      7001      6998      6997      7000      7001
      6999      6997      7000      7001      6997      7000      7001      7002
      6997      7000      7001      7022      6997      7000      7001      7023
      7000      7001      7002      7003      7003      7002      7001      7022
      7003      7002      7001      7023      7001      7002      7003      7004
      7001      7002      7003      7005      7001      7002      7003      7006
      7002      7003      7006      7007      7002      7003      7006      7008
      7002      7003      7006      7009      7004      7003      7006      7007
      7004      7003      7006      7008      7004      7003      7006      7009
      7005      7003      7006      7007      7005      7003      7006      7008
      7005      7003      7006      7009      7003      7006      7009      7010
      7003      7006      7009      7014      7003      7006      7009      7018
      7007      7006      7009      7010      7007      7006      7009      7014
      7007      7006      7009      7018      7008      7006      7009      7010
      7008      7006      7009      7014      7008      7006      7009      7018
      7006      7009      7010      7011      7006      7009      7010      7012
      7006      7009      7010      7013      7006      7009      7014      7015
      7006      7009      7014      7016      7006      7009      7014      7017
      7006      7009      7018      7019      7006      7009      7018      7020
      7006      7009      7018      7021      7011      7010      7009      7014
      7012      7010      7009      7014      7013      7010      7009      7014
      7010      7009      7014      7015      7010      7009      7014      7016
      7010      7009      7014      7017      7011      7010      7009      7018
      7012      7010      7009      7018      7013      7010      7009      7018
      7010      7009      7018      7019      7010      7009      7018      7020
      7010      7009      7018      7021      7015      7014      7009      7018
      7016      7014      7009      7018      7017      7014      7009      7018
      7014      7009      7018      7019      7014      7009      7018      7020
      7014      7009      7018      7021      6995      7024      7025      7027
      6995      7024      7025      7026      7028      7027      7025      7024
      7029      7027      7025      7024      7030      7027      7025      7024
      7028      7027      7025      7026      7029      7027      7025      7026
      7030      7027      7025      7026      7025      7027      7030      7031
      7025      7027      7030      7032      7025      7027      7030      7033
      7028      7027      7030      7031      7028      7027      7030      7032
      7028      7027      7030      7033      7029      7027      7030      7031
      7029      7027      7030      7032      7029      7027      7030      7033
      7027      7030      7033      7034      7027      7030      7033      7035
      7027      7030      7033      7036      7031      7030      7033      7034
      7031      7030      7033      7035      7031      7030      7033      7036
      7032      7030      7033      7034      7032      7030      7033      7035
      7032      7030      7033      7036      7030      7033      7036      7037
      7030      7033      7036      7038      7030      7033      7036      7039
      7034      7033      7036      7037      7034      7033      7036      7038
      7034      7033      7036      7039      7035      7033      7036      7037
      7035      7033      7036      7038      7035      7033      7036      7039
      7033      7036      7039      7040      7033      7036      7039      7041
      7033      7036      7039      7042      7037      7036      7039      7040
      7037      7036      7039      7041      7037      7036      7039      7042
      7038      7036      7039      7040      7038      7036      7039      7041
      7038      7036      7039      7042      7036      7039      7042      7043
      7036      7039      7042      7044      7036      7039      7042      7045
      7040      7039      7042      7043      7040      7039      7042      7044
      7040      7039      7042      7045      7041      7039      7042      7043
      7041      7039      7042      7044      7041      7039      7042      7045
      7039      7042      7045      7046      7039      7042      7045      7047
      7039      7042      7045      7048      7043      7042      7045      7046
      7043      7042      7045      7047      7043      7042      7045      7048
      7044      7042      7045      7046      7044      7042      7045      7047
      7044      7042      7045      7048      7042      7045      7048      7049
      7042      7045      7048      7050      7046      7045      7048      7049
      7046      7045      7048      7050      7047      7045      7048      7049
      7047      7045      7048      7050      7045      7048      7050      7051
      7045      7048      7050      7052      7049      7048      7050      7051
      7049      7048      7050      7052      7048      7050      7052      7053
      7048      7050      7052      7054      7048      7050      7052      7055
      7051      7050      7052      7053      7051      7050      7052      7054
      7051      7050      7052      7055      7050      7052      7055      7056
      7050      7052      7055      7057      7050      7052      7055      7058
      7053      7052      7055      7056      7053      7052      7055      7057
      7053      7052      7055      7058      7054      7052      7055      7056
      7054      7052      7055      7057      7054      7052      7055      7058
      7052      7055      7058      7059      7052      7055      7058      7060
      7052      7055      7058      7061      7056      7055      7058      7059
      7056      7055      7058      7060      7056      7055      7058      7061
      7057      7055      7058      7059      7057      7055      7058      7060
      7057      7055      7058      7061      7055      7058      7061      7062
      7055      7058      7061      7063      7055      7058      7061      7064
      7059      7058      7061      7062      7059      7058      7061      7063
      7059      7058      7061      7064      7060      7058      7061      7062
      7060      7058      7061      7063      7060      7058      7061      7064
      7058      7061      7064      7065      7058      7061      7064      7066
      7058      7061      7064      7067      7062      7061      7064      7065
      7062      7061      7064      7066      7062      7061      7064      7067
      7063      7061      7064      7065      7063      7061      7064      7066
      7063      7061      7064      7067      7061      7064      7067      7068
      7061      7064      7067      7069      7061      7064      7067      7070
      7065      7064      7067      7068      7065      7064      7067      7069
      7065      7064      7067      7070      7066      7064      7067      7068
      7066      7064      7067      7069      7066      7064      7067      7070
      7064      7067      7070      7071      7064      7067      7070      7072
      7064      7067      7070      7073      7068      7067      7070      7071
      7068      7067      7070      7072      7068      7067      7070      7073
      7069      7067      7070      7071      7069      7067      7070      7072
      7069      7067      7070      7073      7067      7070      7073      7074
      7067      7070      7073      7075      7067      7070      7073      7076
      7071      7070      7073      7074      7071      7070      7073      7075
      7071      7070      7073      7076      7072      7070      7073      7074
      7072      7070      7073      7075      7072      7070      7073      7076
      7078      7077      7081      7082      7078      7077      7081      7083
      7078      7077      7081      7084      7079      7077      7081      7082
      7079      7077      7081      7083      7079      7077      7081      7084
      7080      7077      7081      7082      7080      7077      7081      7083
      7080      7077      7081      7084      7077      7081      7084      7085
      7077      7081      7084      7086      7077      7081      7084      7087
      7082      7081      7084      7085      7082      7081      7084      7086
      7082      7081      7084      7087      7083      7081      7084      7085
      7083      7081      7084      7086      7083      7081      7084      7087
      7081      7084      7087      7088      7081      7084      7087      7089
      7081      7084      7087      7090      7085      7084      7087      7088
      7085      7084      7087      7089      7085      7084      7087      7090
      7086      7084      7087      7088      7086      7084      7087      7089
      7086      7084      7087      7090      7084      7087      7090      7091
      7084      7087      7090      7092      7084      7087      7090      7093
      7088      7087      7090      7091      7088      7087      7090      7092
      7088      7087      7090      7093      7089      7087      7090      7091
      7089      7087      7090      7092      7089      7087      7090      7093
      7087      7090      7093      7094      7087      7090      7093      7095
      7087      7090      7093      7096      7091      7090      7093      7094
      7091      7090      7093      7095      7091      7090      7093      7096
      7092      7090      7093      7094      7092      7090      7093      7095
      7092      7090      7093      7096      7090      7093      7096      7097
      7090      7093      7096      7098      7090      7093      7096      7099
      7094      7093      7096      7097      7094      7093      7096      7098
      7094      7093      7096      7099      7095      7093      7096      7097
      7095      7093      7096      7098      7095      7093      7096      7099
      7093      7096      7099      7100      7093      7096      7099      7101
      7093      7096      7099      7102      7097      7096      7099      7100
      7097      7096      7099      7101      7097      7096      7099      7102
      7098      7096      7099      7100      7098      7096      7099      7101
      7098      7096      7099      7102      7096      7099      7102      7103
      7096      7099      7102      7104      7096      7099      7102      7105
      7100      7099      7102      7103      7100      7099      7102      7104
      7100      7099      7102      7105      7101      7099      7102      7103
      7101      7099      7102      7104      7101      7099      7102      7105
      7099      7102      7105      7106      7099      7102      7105      7107
      7099      7102      7105      7108      7103      7102      7105      7106
      7103      7102      7105      7107      7103      7102      7105      7108
      7104      7102      7105      7106      7104      7102      7105      7107
      7104      7102      7105      7108      7102      7105      7108      7109
      7102      7105      7108      7110      7102      7105      7108      7111
      7106      7105      7108      7109      7106      7105      7108      7110
      7106      7105      7108      7111      7107      7105      7108      7109
      7107      7105      7108      7110      7107      7105      7108      7111
      7105      7108      7111      7112      7105      7108      7111      7113
      7105      7108      7111      7114      7109      7108      7111      7112
      7109      7108      7111      7113      7109      7108      7111      7114
      7110      7108      7111      7112      7110      7108      7111      7113
      7110      7108      7111      7114      7108      7111      7114      7115
      7108      7111      7114      7116      7108      7111      7114      7117
      7112      7111      7114      7115      7112      7111      7114      7116
      7112      7111      7114      7117      7113      7111      7114      7115
      7113      7111      7114      7116      7113      7111      7114      7117
      7111      7114      7117      7118      7111      7114      7117      7119
      7111      7114      7117      7120      7115      7114      7117      7118
      7115      7114      7117      7119      7115      7114      7117      7120
      7116      7114      7117      7118      7116      7114      7117      7119
      7116      7114      7117      7120      7114      7117      7120      7123
      7114      7117      7120      7121      7114      7117      7120      7122
      7118      7117      7120      7123      7118      7117      7120      7121
      7118      7117      7120      7122      7119      7117      7120      7123
      7119      7117      7120      7121      7119      7117      7120      7122
      7124      7123      7120      7117      7125      7123      7120      7117
      7124      7123      7120      7121      7125      7123      7120      7121
      7124      7123      7120      7122      7125      7123      7120      7122
      7120      7123      7125      7126      7124      7123      7125      7126
      7123      7125      7126      7127      7123      7125      7126      7128
      7123      7125      7126      7129      7125      7126      7129      7130
      7125      7126      7129      7131      7125      7126      7129      7158
      7127      7126      7129      7130      7127      7126      7129      7131
      7127      7126      7129      7158      7128      7126      7129      7130
      7128      7126      7129      7131      7128      7126      7129      7158
      7126      7129      7131      7132      7126      7129      7131      7133
      7126      7129      7131      7134      7126      7129      7158      7159
      7130      7129      7131      7132      7130      7129      7131      7133
      7130      7129      7131      7134      7130      7129      7158      7159
      7132      7131      7129      7158      7133      7131      7129      7158
      7134      7131      7129      7158      7131      7129      7158      7159
      7129      7131      7134      7135      7132      7131      7134      7135
      7133      7131      7134      7135      7131      7134      7135      7136
      7131      7134      7135      7156      7131      7134      7135      7157
      7134      7135      7136      7137      7137      7136      7135      7156
      7137      7136      7135      7157      7135      7136      7137      7138
      7135      7136      7137      7139      7135      7136      7137      7140
      7136      7137      7140      7141      7136      7137      7140      7142
      7136      7137      7140      7143      7138      7137      7140      7141
      7138      7137      7140      7142      7138      7137      7140      7143
      7139      7137      7140      7141      7139      7137      7140      7142
      7139      7137      7140      7143      7137      7140      7143      7144
      7137      7140      7143      7148      7137      7140      7143      7152
      7141      7140      7143      7144      7141      7140      7143      7148
      7141      7140      7143      7152      7142      7140      7143      7144
      7142      7140      7143      7148      7142      7140      7143      7152
      7140      7143      7144      7145      7140      7143      7144      7146
      7140      7143      7144      7147      7140      7143      7148      7149
      7140      7143      7148      7150      7140      7143      7148      7151
      7140      7143      7152      7153      7140      7143      7152      7154
      7140      7143      7152      7155      7145      7144      7143      7148
      7146      7144      7143      7148      7147      7144      7143      7148
      7144      7143      7148      7149      7144      7143      7148      7150
      7144      7143      7148      7151      7145      7144      7143      7152
      7146      7144      7143      7152      7147      7144      7143      7152
      7144      7143      7152      7153      7144      7143      7152      7154
      7144      7143      7152      7155      7149      7148      7143      7152
      7150      7148      7143      7152      7151      7148      7143      7152
      7148      7143      7152      7153      7148      7143      7152      7154
      7148      7143      7152      7155      7129      7158      7159      7161
      7129      7158      7159      7160      7162      7161      7159      7158
      7163      7161      7159      7158      7164      7161      7159      7158
      7162      7161      7159      7160      7163      7161      7159      7160
      7164      7161      7159      7160      7159      7161      7164      7165
      7159      7161      7164      7166      7159      7161      7164      7167
      7162      7161      7164      7165      7162      7161      7164      7166
      7162      7161      7164      7167      7163      7161      7164      7165
      7163      7161      7164      7166      7163      7161      7164      7167
      7161      7164      7167      7168      7161      7164      7167      7169
      7161      7164      7167      7170      7165      7164      7167      7168
      7165      7164      7167      7169      7165      7164      7167      7170
      7166      7164      7167      7168      7166      7164      7167      7169
      7166      7164      7167      7170      7164      7167      7170      7171
      7164      7167      7170      7172      7164      7167      7170      7173
      7168      7167      7170      7171      7168      7167      7170      7172
      7168      7167      7170      7173      7169      7167      7170      7171
      7169      7167      7170      7172      7169      7167      7170      7173
      7167      7170      7173      7174      7167      7170      7173      7175
      7167      7170      7173      7176      7171      7170      7173      7174
      7171      7170      7173      7175      7171      7170      7173      7176
      7172      7170      7173      7174      7172      7170      7173      7175
      7172      7170      7173      7176      7170      7173      7176      7177
      7170      7173      7176      7178      7170      7173      7176      7179
      7174      7173      7176      7177      7174      7173      7176      7178
      7174      7173      7176      7179      7175      7173      7176      7177
      7175      7173      7176      7178      7175      7173      7176      7179
      7173      7176      7179      7180      7173      7176      7179      7181
      7173      7176      7179      7182      7177      7176      7179      7180
      7177      7176      7179      7181      7177      7176      7179      7182
      7178      7176      7179      7180      7178      7176      7179      7181
      7178      7176      7179      7182      7176      7179      7182      7183
      7176      7179      7182      7184      7180      7179      7182      7183
      7180      7179      7182      7184      7181      7179      7182      7183
      7181      7179      7182      7184      7179      7182      7184      7185
      7179      7182      7184      7186      7183      7182      7184      7185
      7183      7182      7184      7186      7182      7184      7186      7187
      7182      7184      7186      7188      7182      7184      7186      7189
      7185      7184      7186      7187      7185      7184      7186      7188
      7185      7184      7186      7189      7184      7186      7189      7190
      7184      7186      7189      7191      7184      7186      7189      7192
      7187      7186      7189      7190      7187      7186      7189      7191
      7187      7186      7189      7192      7188      7186      7189      7190
      7188      7186      7189      7191      7188      7186      7189      7192
      7186      7189      7192      7193      7186      7189      7192      7194
      7186      7189      7192      7195      7190      7189      7192      7193
      7190      7189      7192      7194      7190      7189      7192      7195
      7191      7189      7192      7193      7191      7189      7192      7194
      7191      7189      7192      7195      7189      7192      7195      7196
      7189      7192      7195      7197      7189      7192      7195      7198
      7193      7192      7195      7196      7193      7192      7195      7197
      7193      7192      7195      7198      7194      7192      7195      7196
      7194      7192      7195      7197      7194      7192      7195      7198
      7192      7195      7198      7199      7192      7195      7198      7200
      7192      7195      7198      7201      7196      7195      7198      7199
      7196      7195      7198      7200      7196      7195      7198      7201
      7197      7195      7198      7199      7197      7195      7198      7200
      7197      7195      7198      7201      7195      7198      7201      7202
      7195      7198      7201      7203      7195      7198      7201      7204
      7199      7198      7201      7202      7199      7198      7201      7203
      7199      7198      7201      7204      7200      7198      7201      7202
      7200      7198      7201      7203      7200      7198      7201      7204
      7198      7201      7204      7205      7198      7201      7204      7206
      7198      7201      7204      7207      7202      7201      7204      7205
      7202      7201      7204      7206      7202      7201      7204      7207
      7203      7201      7204      7205      7203      7201      7204      7206
      7203      7201      7204      7207      7201      7204      7207      7208
      7201      7204      7207      7209      7201      7204      7207      7210
      7205      7204      7207      7208      7205      7204      7207      7209
      7205      7204      7207      7210      7206      7204      7207      7208
      7206      7204      7207      7209      7206      7204      7207      7210
      7212      7211      7215      7216      7212      7211      7215      7217
      7212      7211      7215      7218      7213      7211      7215      7216
      7213      7211      7215      7217      7213      7211      7215      7218
      7214      7211      7215      7216      7214      7211      7215      7217
      7214      7211      7215      7218      7211      7215      7218      7219
      7211      7215      7218      7220      7211      7215      7218      7221
      7216      7215      7218      7219      7216      7215      7218      7220
      7216      7215      7218      7221      7217      7215      7218      7219
      7217      7215      7218      7220      7217      7215      7218      7221
      7215      7218      7221      7222      7215      7218      7221      7223
      7215      7218      7221      7224      7219      7218      7221      7222
      7219      7218      7221      7223      7219      7218      7221      7224
      7220      7218      7221      7222      7220      7218      7221      7223
      7220      7218      7221      7224      7218      7221      7224      7225
      7218      7221      7224      7226      7218      7221      7224      7227
      7222      7221      7224      7225      7222      7221      7224      7226
      7222      7221      7224      7227      7223      7221      7224      7225
      7223      7221      7224      7226      7223      7221      7224      7227
      7221      7224      7227      7228      7221      7224      7227      7229
      7221      7224      7227      7230      7225      7224      7227      7228
      7225      7224      7227      7229      7225      7224      7227      7230
      7226      7224      7227      7228      7226      7224      7227      7229
      7226      7224      7227      7230      7224      7227      7230      7231
      7224      7227      7230      7232      7224      7227      7230      7233
      7228      7227      7230      7231      7228      7227      7230      7232
      7228      7227      7230      7233      7229      7227      7230      7231
      7229      7227      7230      7232      7229      7227      7230      7233
      7227      7230      7233      7234      7227      7230      7233      7235
      7227      7230      7233      7236      7231      7230      7233      7234
      7231      7230      7233      7235      7231      7230      7233      7236
      7232      7230      7233      7234      7232      7230      7233      7235
      7232      7230      7233      7236      7230      7233      7236      7237
      7230      7233      7236      7238      7230      7233      7236      7239
      7234      7233      7236      7237      7234      7233      7236      7238
      7234      7233      7236      7239      7235      7233      7236      7237
      7235      7233      7236      7238      7235      7233      7236      7239
      7233      7236      7239      7240      7233      7236      7239      7241
      7233      7236      7239      7242      7237      7236      7239      7240
      7237      7236      7239      7241      7237      7236      7239      7242
      7238      7236      7239      7240      7238      7236      7239      7241
      7238      7236      7239      7242      7236      7239      7242      7243
      7236      7239      7242      7244      7236      7239      7242      7245
      7240      7239      7242      7243      7240      7239      7242      7244
      7240      7239      7242      7245      7241      7239      7242      7243
      7241      7239      7242      7244      7241      7239      7242      7245
      7239      7242      7245      7246      7239      7242      7245      7247
      7239      7242      7245      7248      7243      7242      7245      7246
      7243      7242      7245      7247      7243      7242      7245      7248
      7244      7242      7245      7246      7244      7242      7245      7247
      7244      7242      7245      7248      7242      7245      7248      7249
      7242      7245      7248      7250      7242      7245      7248      7251
      7246      7245      7248      7249      7246      7245      7248      7250
      7246      7245      7248      7251      7247      7245      7248      7249
      7247      7245      7248      7250      7247      7245      7248      7251
      7245      7248      7251      7252      7245      7248      7251      7253
      7245      7248      7251      7254      7249      7248      7251      7252
      7249      7248      7251      7253      7249      7248      7251      7254
      7250      7248      7251      7252      7250      7248      7251      7253
      7250      7248      7251      7254      7248      7251      7254      7257
      7248      7251      7254      7255      7248      7251      7254      7256
      7252      7251      7254      7257      7252      7251      7254      7255
      7252      7251      7254      7256      7253      7251      7254      7257
      7253      7251      7254      7255      7253      7251      7254      7256
      7258      7257      7254      7251      7259      7257      7254      7251
      7258      7257      7254      7255      7259      7257      7254      7255
      7258      7257      7254      7256      7259      7257      7254      7256
      7254      7257      7259      7260      7258      7257      7259      7260
      7257      7259      7260      7261      7257      7259      7260      7262
      7257      7259      7260      7263      7259      7260      7263      7264
      7259      7260      7263      7265      7259      7260      7263      7292
      7261      7260      7263      7264      7261      7260      7263      7265
      7261      7260      7263      7292      7262      7260      7263      7264
      7262      7260      7263      7265      7262      7260      7263      7292
      7260      7263      7265      7266      7260      7263      7265      7267
      7260      7263      7265      7268      7260      7263      7292      7293
      7264      7263      7265      7266      7264      7263      7265      7267
      7264      7263      7265      7268      7264      7263      7292      7293
      7266      7265      7263      7292      7267      7265      7263      7292
      7268      7265      7263      7292      7265      7263      7292      7293
      7263      7265      7268      7269      7266      7265      7268      7269
      7267      7265      7268      7269      7265      7268      7269      7270
      7265      7268      7269      7290      7265      7268      7269      7291
      7268      7269      7270      7271      7271      7270      7269      7290
      7271      7270      7269      7291      7269      7270      7271      7272
      7269      7270      7271      7273      7269      7270      7271      7274
      7270      7271      7274      7275      7270      7271      7274      7276
      7270      7271      7274      7277      7272      7271      7274      7275
      7272      7271      7274      7276      7272      7271      7274      7277
      7273      7271      7274      7275      7273      7271      7274      7276
      7273      7271      7274      7277      7271      7274      7277      7278
      7271      7274      7277      7282      7271      7274      7277      7286
      7275      7274      7277      7278      7275      7274      7277      7282
      7275      7274      7277      7286      7276      7274      7277      7278
      7276      7274      7277      7282      7276      7274      7277      7286
      7274      7277      7278      7279      7274      7277      7278      7280
      7274      7277      7278      7281      7274      7277      7282      7283
      7274      7277      7282      7284      7274      7277      7282      7285
      7274      7277      7286      7287      7274      7277      7286      7288
      7274      7277      7286      7289      7279      7278      7277      7282
      7280      7278      7277      7282      7281      7278      7277      7282
      7278      7277      7282      7283      7278      7277      7282      7284
      7278      7277      7282      7285      7279      7278      7277      7286
      7280      7278      7277      7286      7281      7278      7277      7286
      7278      7277      7286      7287      7278      7277      7286      7288
      7278      7277      7286      7289      7283      7282      7277      7286
      7284      7282      7277      7286      7285      7282      7277      7286
      7282      7277      7286      7287      7282      7277      7286      7288
      7282      7277      7286      7289      7263      7292      7293      7295
      7263      7292      7293      7294      7296      7295      7293      7292
      7297      7295      7293      7292      7298      7295      7293      7292
      7296      7295      7293      7294      7297      7295      7293      7294
      7298      7295      7293      7294      7293      7295      7298      7299
      7293      7295      7298      7300      7293      7295      7298      7301
      7296      7295      7298      7299      7296      7295      7298      7300
      7296      7295      7298      7301      7297      7295      7298      7299
      7297      7295      7298      7300      7297      7295      7298      7301
      7295      7298      7301      7302      7295      7298      7301      7303
      7295      7298      7301      7304      7299      7298      7301      7302
      7299      7298      7301      7303      7299      7298      7301      7304
      7300      7298      7301      7302      7300      7298      7301      7303
      7300      7298      7301      7304      7298      7301      7304      7305
      7298      7301      7304      7306      7298      7301      7304      7307
      7302      7301      7304      7305      7302      7301      7304      7306
      7302      7301      7304      7307      7303      7301      7304      7305
      7303      7301      7304      7306      7303      7301      7304      7307
      7301      7304      7307      7308      7301      7304      7307      7309
      7301      7304      7307      7310      7305      7304      7307      7308
      7305      7304      7307      7309      7305      7304      7307      7310
      7306      7304      7307      7308      7306      7304      7307      7309
      7306      7304      7307      7310      7304      7307      7310      7311
      7304      7307      7310      7312      7304      7307      7310      7313
      7308      7307      7310      7311      7308      7307      7310      7312
      7308      7307      7310      7313      7309      7307      7310      7311
      7309      7307      7310      7312      7309      7307      7310      7313
      7307      7310      7313      7314      7307      7310      7313      7315
      7307      7310      7313      7316      7311      7310      7313      7314
      7311      7310      7313      7315      7311      7310      7313      7316
      7312      7310      7313      7314      7312      7310      7313      7315
      7312      7310      7313      7316      7310      7313      7316      7317
      7310      7313      7316      7318      7314      7313      7316      7317
      7314      7313      7316      7318      7315      7313      7316      7317
      7315      7313      7316      7318      7313      7316      7318      7319
      7313      7316      7318      7320      7317      7316      7318      7319
      7317      7316      7318      7320      7316      7318      7320      7321
      7316      7318      7320      7322      7316      7318      7320      7323
      7319      7318      7320      7321      7319      7318      7320      7322
      7319      7318      7320      7323      7318      7320      7323      7324
      7318      7320      7323      7325      7318      7320      7323      7326
      7321      7320      7323      7324      7321      7320      7323      7325
      7321      7320      7323      7326      7322      7320      7323      7324
      7322      7320      7323      7325      7322      7320      7323      7326
      7320      7323      7326      7327      7320      7323      7326      7328
      7320      7323      7326      7329      7324      7323      7326      7327
      7324      7323      7326      7328      7324      7323      7326      7329
      7325      7323      7326      7327      7325      7323      7326      7328
      7325      7323      7326      7329      7323      7326      7329      7330
      7323      7326      7329      7331      7323      7326      7329      7332
      7327      7326      7329      7330      7327      7326      7329      7331
      7327      7326      7329      7332      7328      7326      7329      7330
      7328      7326      7329      7331      7328      7326      7329      7332
      7326      7329      7332      7333      7326      7329      7332      7334
      7326      7329      7332      7335      7330      7329      7332      7333
      7330      7329      7332      7334      7330      7329      7332      7335
      7331      7329      7332      7333      7331      7329      7332      7334
      7331      7329      7332      7335      7329      7332      7335      7336
      7329      7332      7335      7337      7329      7332      7335      7338
      7333      7332      7335      7336      7333      7332      7335      7337
      7333      7332      7335      7338      7334      7332      7335      7336
      7334      7332      7335      7337      7334      7332      7335      7338
      7332      7335      7338      7339      7332      7335      7338      7340
      7332      7335      7338      7341      7336      7335      7338      7339
      7336      7335      7338      7340      7336      7335      7338      7341
      7337      7335      7338      7339      7337      7335      7338      7340
      7337      7335      7338      7341      7335      7338      7341      7342
      7335      7338      7341      7343      7335      7338      7341      7344
      7339      7338      7341      7342      7339      7338      7341      7343
      7339      7338      7341      7344      7340      7338      7341      7342
      7340      7338      7341      7343      7340      7338      7341      7344
      7346      7345      7349      7350      7346      7345      7349      7351
      7346      7345      7349      7352      7347      7345      7349      7350
      7347      7345      7349      7351      7347      7345      7349      7352
      7348      7345      7349      7350      7348      7345      7349      7351
      7348      7345      7349      7352      7345      7349      7352      7353
      7345      7349      7352      7354      7345      7349      7352      7355
      7350      7349      7352      7353      7350      7349      7352      7354
      7350      7349      7352      7355      7351      7349      7352      7353
      7351      7349      7352      7354      7351      7349      7352      7355
      7349      7352      7355      7356      7349      7352      7355      7357
      7349      7352      7355      7358      7353      7352      7355      7356
      7353      7352      7355      7357      7353      7352      7355      7358
      7354      7352      7355      7356      7354      7352      7355      7357
      7354      7352      7355      7358      7352      7355      7358      7359
      7352      7355      7358      7360      7352      7355      7358      7361
      7356      7355      7358      7359      7356      7355      7358      7360
      7356      7355      7358      7361      7357      7355      7358      7359
      7357      7355      7358      7360      7357      7355      7358      7361
      7355      7358      7361      7362      7355      7358      7361      7363
      7355      7358      7361      7364      7359      7358      7361      7362
      7359      7358      7361      7363      7359      7358      7361      7364
      7360      7358      7361      7362      7360      7358      7361      7363
      7360      7358      7361      7364      7358      7361      7364      7365
      7358      7361      7364      7366      7358      7361      7364      7367
      7362      7361      7364      7365      7362      7361      7364      7366
      7362      7361      7364      7367      7363      7361      7364      7365
      7363      7361      7364      7366      7363      7361      7364      7367
      7361      7364      7367      7368      7361      7364      7367      7369
      7361      7364      7367      7370      7365      7364      7367      7368
      7365      7364      7367      7369      7365      7364      7367      7370
      7366      7364      7367      7368      7366      7364      7367      7369
      7366      7364      7367      7370      7364      7367      7370      7371
      7364      7367      7370      7372      7364      7367      7370      7373
      7368      7367      7370      7371      7368      7367      7370      7372
      7368      7367      7370      7373      7369      7367      7370      7371
      7369      7367      7370      7372      7369      7367      7370      7373
      7367      7370      7373      7374      7367      7370      7373      7375
      7367      7370      7373      7376      7371      7370      7373      7374
      7371      7370      7373      7375      7371      7370      7373      7376
      7372      7370      7373      7374      7372      7370      7373      7375
      7372      7370      7373      7376      7370      7373      7376      7377
      7370      7373      7376      7378      7370      7373      7376      7379
      7374      7373      7376      7377      7374      7373      7376      7378
      7374      7373      7376      7379      7375      7373      7376      7377
      7375      7373      7376      7378      7375      7373      7376      7379
      7373      7376      7379      7380      7373      7376      7379      7381
      7373      7376      7379      7382      7377      7376      7379      7380
      7377      7376      7379      7381      7377      7376      7379      7382
      7378      7376      7379      7380      7378      7376      7379      7381
      7378      7376      7379      7382      7376      7379      7382      7383
      7376      7379      7382      7384      7376      7379      7382      7385
      7380      7379      7382      7383      7380      7379      7382      7384
      7380      7379      7382      7385      7381      7379      7382      7383
      7381      7379      7382      7384      7381      7379      7382      7385
      7379      7382      7385      7386      7379      7382      7385      7387
      7379      7382      7385      7388      7383      7382      7385      7386
      7383      7382      7385      7387      7383      7382      7385      7388
      7384      7382      7385      7386      7384      7382      7385      7387
      7384      7382      7385      7388      7382      7385      7388      7391
      7382      7385      7388      7389      7382      7385      7388      7390
      7386      7385      7388      7391      7386      7385      7388      7389
      7386      7385      7388      7390      7387      7385      7388      7391
      7387      7385      7388      7389      7387      7385      7388      7390
      7392      7391      7388      7385      7393      7391      7388      7385
      7392      7391      7388      7389      7393      7391      7388      7389
      7392      7391      7388      7390      7393      7391      7388      7390
      7388      7391      7393      7394      7392      7391      7393      7394
      7391      7393      7394      7395      7391      7393      7394      7396
      7391      7393      7394      7397      7393      7394      7397      7398
      7393      7394      7397      7399      7393      7394      7397      7426
      7395      7394      7397      7398      7395      7394      7397      7399
      7395      7394      7397      7426      7396      7394      7397      7398
      7396      7394      7397      7399      7396      7394      7397      7426
      7394      7397      7399      7400      7394      7397      7399      7401
      7394      7397      7399      7402      7394      7397      7426      7427
      7398      7397      7399      7400      7398      7397      7399      7401
      7398      7397      7399      7402      7398      7397      7426      7427
      7400      7399      7397      7426      7401      7399      7397      7426
      7402      7399      7397      7426      7399      7397      7426      7427
      7397      7399      7402      7403      7400      7399      7402      7403
      7401      7399      7402      7403      7399      7402      7403      7404
      7399      7402      7403      7424      7399      7402      7403      7425
      7402      7403      7404      7405      7405      7404      7403      7424
      7405      7404      7403      7425      7403      7404      7405      7406
      7403      7404      7405      7407      7403      7404      7405      7408
      7404      7405      7408      7409      7404      7405      7408      7410
      7404      7405      7408      7411      7406      7405      7408      7409
      7406      7405      7408      7410      7406      7405      7408      7411
      7407      7405      7408      7409      7407      7405      7408      7410
      7407      7405      7408      7411      7405      7408      7411      7412
      7405      7408      7411      7416      7405      7408      7411      7420
      7409      7408      7411      7412      7409      7408      7411      7416
      7409      7408      7411      7420      7410      7408      7411      7412
      7410      7408      7411      7416      7410      7408      7411      7420
      7408      7411      7412      7413      7408      7411      7412      7414
      7408      7411      7412      7415      7408      7411      7416      7417
      7408      7411      7416      7418      7408      7411      7416      7419
      7408      7411      7420      7421      7408      7411      7420      7422
      7408      7411      7420      7423      7413      7412      7411      7416
      7414      7412      7411      7416      7415      7412      7411      7416
      7412      7411      7416      7417      7412      7411      7416      7418
      7412      7411      7416      7419      7413      7412      7411      7420
      7414      7412      7411      7420      7415      7412      7411      7420
      7412      7411      7420      7421      7412      7411      7420      7422
      7412      7411      7420      7423      7417      7416      7411      7420
      7418      7416      7411      7420      7419      7416      7411      7420
      7416      7411      7420      7421      7416      7411      7420      7422
      7416      7411      7420      7423      7397      7426      7427      7429
      7397      7426      7427      7428      7430      7429      7427      7426
      7431      7429      7427      7426      7432      7429      7427      7426
      7430      7429      7427      7428      7431      7429      7427      7428
      7432      7429      7427      7428      7427      7429      7432      7433
      7427      7429      7432      7434      7427      7429      7432      7435
      7430      7429      7432      7433      7430      7429      7432      7434
      7430      7429      7432      7435      7431      7429      7432      7433
      7431      7429      7432      7434      7431      7429      7432      7435
      7429      7432      7435      7436      7429      7432      7435      7437
      7429      7432      7435      7438      7433      7432      7435      7436
      7433      7432      7435      7437      7433      7432      7435      7438
      7434      7432      7435      7436      7434      7432      7435      7437
      7434      7432      7435      7438      7432      7435      7438      7439
      7432      7435      7438      7440      7432      7435      7438      7441
      7436      7435      7438      7439      7436      7435      7438      7440
      7436      7435      7438      7441      7437      7435      7438      7439
      7437      7435      7438      7440      7437      7435      7438      7441
      7435      7438      7441      7442      7435      7438      7441      7443
      7435      7438      7441      7444      7439      7438      7441      7442
      7439      7438      7441      7443      7439      7438      7441      7444
      7440      7438      7441      7442      7440      7438      7441      7443
      7440      7438      7441      7444      7438      7441      7444      7445
      7438      7441      7444      7446      7438      7441      7444      7447
      7442      7441      7444      7445      7442      7441      7444      7446
      7442      7441      7444      7447      7443      7441      7444      7445
      7443      7441      7444      7446      7443      7441      7444      7447
      7441      7444      7447      7448      7441      7444      7447      7449
      7441      7444      7447      7450      7445      7444      7447      7448
      7445      7444      7447      7449      7445      7444      7447      7450
      7446      7444      7447      7448      7446      7444      7447      7449
      7446      7444      7447      7450      7444      7447      7450      7451
      7444      7447      7450      7452      7448      7447      7450      7451
      7448      7447      7450      7452      7449      7447      7450      7451
      7449      7447      7450      7452      7447      7450      7452      7453
      7447      7450      7452      7454      7451      7450      7452      7453
      7451      7450      7452      7454      7450      7452      7454      7455
      7450      7452      7454      7456      7450      7452      7454      7457
      7453      7452      7454      7455      7453      7452      7454      7456
      7453      7452      7454      7457      7452      7454      7457      7458
      7452      7454      7457      7459      7452      7454      7457      7460
      7455      7454      7457      7458      7455      7454      7457      7459
      7455      7454      7457      7460      7456      7454      7457      7458
      7456      7454      7457      7459      7456      7454      7457      7460
      7454      7457      7460      7461      7454      7457      7460      7462
      7454      7457      7460      7463      7458      7457      7460      7461
      7458      7457      7460      7462      7458      7457      7460      7463
      7459      7457      7460      7461      7459      7457      7460      7462
      7459      7457      7460      7463      7457      7460      7463      7464
      7457      7460      7463      7465      7457      7460      7463      7466
      7461      7460      7463      7464      7461      7460      7463      7465
      7461      7460      7463      7466      7462      7460      7463      7464
      7462      7460      7463      7465      7462      7460      7463      7466
      7460      7463      7466      7467      7460      7463      7466      7468
      7460      7463      7466      7469      7464      7463      7466      7467
      7464      7463      7466      7468      7464      7463      7466      7469
      7465      7463      7466      7467      7465      7463      7466      7468
      7465      7463      7466      7469      7463      7466      7469      7470
      7463      7466      7469      7471      7463      7466      7469      7472
      7467      7466      7469      7470      7467      7466      7469      7471
      7467      7466      7469      7472      7468      7466      7469      7470
      7468      7466      7469      7471      7468      7466      7469      7472
      7466      7469      7472      7473      7466      7469      7472      7474
      7466      7469      7472      7475      7470      7469      7472      7473
      7470      7469      7472      7474      7470      7469      7472      7475
      7471      7469      7472      7473      7471      7469      7472      7474
      7471      7469      7472      7475      7469      7472      7475      7476
      7469      7472      7475      7477      7469      7472      7475      7478
      7473      7472      7475      7476      7473      7472      7475      7477
      7473      7472      7475      7478      7474      7472      7475      7476
      7474      7472      7475      7477      7474      7472      7475      7478
      7480      7479      7483      7484      7480      7479      7483      7485
      7480      7479      7483      7486      7481      7479      7483      7484
      7481      7479      7483      7485      7481      7479      7483      7486
      7482      7479      7483      7484      7482      7479      7483      7485
      7482      7479      7483      7486      7479      7483      7486      7487
      7479      7483      7486      7488      7479      7483      7486      7489
      7484      7483      7486      7487      7484      7483      7486      7488
      7484      7483      7486      7489      7485      7483      7486      7487
      7485      7483      7486      7488      7485      7483      7486      7489
      7483      7486      7489      7490      7483      7486      7489      7491
      7483      7486      7489      7492      7487      7486      7489      7490
      7487      7486      7489      7491      7487      7486      7489      7492
      7488      7486      7489      7490      7488      7486      7489      7491
      7488      7486      7489      7492      7486      7489      7492      7493
      7486      7489      7492      7494      7486      7489      7492      7495
      7490      7489      7492      7493      7490      7489      7492      7494
      7490      7489      7492      7495      7491      7489      7492      7493
      7491      7489      7492      7494      7491      7489      7492      7495
      7489      7492      7495      7496      7489      7492      7495      7497
      7489      7492      7495      7498      7493      7492      7495      7496
      7493      7492      7495      7497      7493      7492      7495      7498
      7494      7492      7495      7496      7494      7492      7495      7497
      7494      7492      7495      7498      7492      7495      7498      7499
      7492      7495      7498      7500      7492      7495      7498      7501
      7496      7495      7498      7499      7496      7495      7498      7500
      7496      7495      7498      7501      7497      7495      7498      7499
      7497      7495      7498      7500      7497      7495      7498      7501
      7495      7498      7501      7502      7495      7498      7501      7503
      7495      7498      7501      7504      7499      7498      7501      7502
      7499      7498      7501      7503      7499      7498      7501      7504
      7500      7498      7501      7502      7500      7498      7501      7503
      7500      7498      7501      7504      7498      7501      7504      7505
      7498      7501      7504      7506      7498      7501      7504      7507
      7502      7501      7504      7505      7502      7501      7504      7506
      7502      7501      7504      7507      7503      7501      7504      7505
      7503      7501      7504      7506      7503      7501      7504      7507
      7501      7504      7507      7508      7501      7504      7507      7509
      7501      7504      7507      7510      7505      7504      7507      7508
      7505      7504      7507      7509      7505      7504      7507      7510
      7506      7504      7507      7508      7506      7504      7507      7509
      7506      7504      7507      7510      7504      7507      7510      7511
      7504      7507      7510      7512      7504      7507      7510      7513
      7508      7507      7510      7511      7508      7507      7510      7512
      7508      7507      7510      7513      7509      7507      7510      7511
      7509      7507      7510      7512      7509      7507      7510      7513
      7507      7510      7513      7514      7507      7510      7513      7515
      7507      7510      7513      7516      7511      7510      7513      7514
      7511      7510      7513      7515      7511      7510      7513      7516
      7512      7510      7513      7514      7512      7510      7513      7515
      7512      7510      7513      7516      7510      7513      7516      7517
      7510      7513      7516      7518      7510      7513      7516      7519
      7514      7513      7516      7517      7514      7513      7516      7518
      7514      7513      7516      7519      7515      7513      7516      7517
      7515      7513      7516      7518      7515      7513      7516      7519
      7513      7516      7519      7520      7513      7516      7519      7521
      7513      7516      7519      7522      7517      7516      7519      7520
      7517      7516      7519      7521      7517      7516      7519      7522
      7518      7516      7519      7520      7518      7516      7519      7521
      7518      7516      7519      7522      7516      7519      7522      7525
      7516      7519      7522      7523      7516      7519      7522      7524
      7520      7519      7522      7525      7520      7519      7522      7523
      7520      7519      7522      7524      7521      7519      7522      7525
      7521      7519      7522      7523      7521      7519      7522      7524
      7526      7525      7522      7519      7527      7525      7522      7519
      7526      7525      7522      7523      7527      7525      7522      7523
      7526      7525      7522      7524      7527      7525      7522      7524
      7522      7525      7527      7528      7526      7525      7527      7528
      7525      7527      7528      7529      7525      7527      7528      7530
      7525      7527      7528      7531      7527      7528      7531      7532
      7527      7528      7531      7533      7527      7528      7531      7560
      7529      7528      7531      7532      7529      7528      7531      7533
      7529      7528      7531      7560      7530      7528      7531      7532
      7530      7528      7531      7533      7530      7528      7531      7560
      7528      7531      7533      7534      7528      7531      7533      7535
      7528      7531      7533      7536      7528      7531      7560      7561
      7532      7531      7533      7534      7532      7531      7533      7535
      7532      7531      7533      7536      7532      7531      7560      7561
      7534      7533      7531      7560      7535      7533      7531      7560
      7536      7533      7531      7560      7533      7531      7560      7561
      7531      7533      7536      7537      7534      7533      7536      7537
      7535      7533      7536      7537      7533      7536      7537      7538
      7533      7536      7537      7558      7533      7536      7537      7559
      7536      7537      7538      7539      7539      7538      7537      7558
      7539      7538      7537      7559      7537      7538      7539      7540
      7537      7538      7539      7541      7537      7538      7539      7542
      7538      7539      7542      7543      7538      7539      7542      7544
      7538      7539      7542      7545      7540      7539      7542      7543
      7540      7539      7542      7544      7540      7539      7542      7545
      7541      7539      7542      7543      7541      7539      7542      7544
      7541      7539      7542      7545      7539      7542      7545      7546
      7539      7542      7545      7550      7539      7542      7545      7554
      7543      7542      7545      7546      7543      7542      7545      7550
      7543      7542      7545      7554      7544      7542      7545      7546
      7544      7542      7545      7550      7544      7542      7545      7554
      7542      7545      7546      7547      7542      7545      7546      7548
      7542      7545      7546      7549      7542      7545      7550      7551
      7542      7545      7550      7552      7542      7545      7550      7553
      7542      7545      7554      7555      7542      7545      7554      7556
      7542      7545      7554      7557      7547      7546      7545      7550
      7548      7546      7545      7550      7549      7546      7545      7550
      7546      7545      7550      7551      7546      7545      7550      7552
      7546      7545      7550      7553      7547      7546      7545      7554
      7548      7546      7545      7554      7549      7546      7545      7554
      7546      7545      7554      7555      7546      7545      7554      7556
      7546      7545      7554      7557      7551      7550      7545      7554
      7552      7550      7545      7554      7553      7550      7545      7554
      7550      7545      7554      7555      7550      7545      7554      7556
      7550      7545      7554      7557      7531      7560      7561      7563
      7531      7560      7561      7562      7564      7563      7561      7560
      7565      7563      7561      7560      7566      7563      7561      7560
      7564      7563      7561      7562      7565      7563      7561      7562
      7566      7563      7561      7562      7561      7563      7566      7567
      7561      7563      7566      7568      7561      7563      7566      7569
      7564      7563      7566      7567      7564      7563      7566      7568
      7564      7563      7566      7569      7565      7563      7566      7567
      7565      7563      7566      7568      7565      7563      7566      7569
      7563      7566      7569      7570      7563      7566      7569      7571
      7563      7566      7569      7572      7567      7566      7569      7570
      7567      7566      7569      7571      7567      7566      7569      7572
      7568      7566      7569      7570      7568      7566      7569      7571
      7568      7566      7569      7572      7566      7569      7572      7573
      7566      7569      7572      7574      7566      7569      7572      7575
      7570      7569      7572      7573      7570      7569      7572      7574
      7570      7569      7572      7575      7571      7569      7572      7573
      7571      7569      7572      7574      7571      7569      7572      7575
      7569      7572      7575      7576      7569      7572      7575      7577
      7569      7572      7575      7578      7573      7572      7575      7576
      7573      7572      7575      7577      7573      7572      7575      7578
      7574      7572      7575      7576      7574      7572      7575      7577
      7574      7572      7575      7578      7572      7575      7578      7579
      7572      7575      7578      7580      7572      7575      7578      7581
      7576      7575      7578      7579      7576      7575      7578      7580
      7576      7575      7578      7581      7577      7575      7578      7579
      7577      7575      7578      7580      7577      7575      7578      7581
      7575      7578      7581      7582      7575      7578      7581      7583
      7575      7578      7581      7584      7579      7578      7581      7582
      7579      7578      7581      7583      7579      7578      7581      7584
      7580      7578      7581      7582      7580      7578      7581      7583
      7580      7578      7581      7584      7578      7581      7584      7585
      7578      7581      7584      7586      7582      7581      7584      7585
      7582      7581      7584      7586      7583      7581      7584      7585
      7583      7581      7584      7586      7581      7584      7586      7587
      7581      7584      7586      7588      7585      7584      7586      7587
      7585      7584      7586      7588      7584      7586      7588      7589
      7584      7586      7588      7590      7584      7586      7588      7591
      7587      7586      7588      7589      7587      7586      7588      7590
      7587      7586      7588      7591      7586      7588      7591      7592
      7586      7588      7591      7593      7586      7588      7591      7594
      7589      7588      7591      7592      7589      7588      7591      7593
      7589      7588      7591      7594      7590      7588      7591      7592
      7590      7588      7591      7593      7590      7588      7591      7594
      7588      7591      7594      7595      7588      7591      7594      7596
      7588      7591      7594      7597      7592      7591      7594      7595
      7592      7591      7594      7596      7592      7591      7594      7597
      7593      7591      7594      7595      7593      7591      7594      7596
      7593      7591      7594      7597      7591      7594      7597      7598
      7591      7594      7597      7599      7591      7594      7597      7600
      7595      7594      7597      7598      7595      7594      7597      7599
      7595      7594      7597      7600      7596      7594      7597      7598
      7596      7594      7597      7599      7596      7594      7597      7600
      7594      7597      7600      7601      7594      7597      7600      7602
      7594      7597      7600      7603      7598      7597      7600      7601
      7598      7597      7600      7602      7598      7597      7600      7603
      7599      7597      7600      7601      7599      7597      7600      7602
      7599      7597      7600      7603      7597      7600      7603      7604
      7597      7600      7603      7605      7597      7600      7603      7606
      7601      7600      7603      7604      7601      7600      7603      7605
      7601      7600      7603      7606      7602      7600      7603      7604
      7602      7600      7603      7605      7602      7600      7603      7606
      7600      7603      7606      7607      7600      7603      7606      7608
      7600      7603      7606      7609      7604      7603      7606      7607
      7604      7603      7606      7608      7604      7603      7606      7609
      7605      7603      7606      7607      7605      7603      7606      7608
      7605      7603      7606      7609      7603      7606      7609      7610
      7603      7606      7609      7611      7603      7606      7609      7612
      7607      7606      7609      7610      7607      7606      7609      7611
      7607      7606      7609      7612      7608      7606      7609      7610
      7608      7606      7609      7611      7608      7606      7609      7612
      7614      7613      7617      7618      7614      7613      7617      7619
      7614      7613      7617      7620      7615      7613      7617      7618
      7615      7613      7617      7619      7615      7613      7617      7620
      7616      7613      7617      7618      7616      7613      7617      7619
      7616      7613      7617      7620      7613      7617      7620      7621
      7613      7617      7620      7622      7613      7617      7620      7623
      7618      7617      7620      7621      7618      7617      7620      7622
      7618      7617      7620      7623      7619      7617      7620      7621
      7619      7617      7620      7622      7619      7617      7620      7623
      7617      7620      7623      7624      7617      7620      7623      7625
      7617      7620      7623      7626      7621      7620      7623      7624
      7621      7620      7623      7625      7621      7620      7623      7626
      7622      7620      7623      7624      7622      7620      7623      7625
      7622      7620      7623      7626      7620      7623      7626      7627
      7620      7623      7626      7628      7620      7623      7626      7629
      7624      7623      7626      7627      7624      7623      7626      7628
      7624      7623      7626      7629      7625      7623      7626      7627
      7625      7623      7626      7628      7625      7623      7626      7629
      7623      7626      7629      7630      7623      7626      7629      7631
      7623      7626      7629      7632      7627      7626      7629      7630
      7627      7626      7629      7631      7627      7626      7629      7632
      7628      7626      7629      7630      7628      7626      7629      7631
      7628      7626      7629      7632      7626      7629      7632      7633
      7626      7629      7632      7634      7626      7629      7632      7635
      7630      7629      7632      7633      7630      7629      7632      7634
      7630      7629      7632      7635      7631      7629      7632      7633
      7631      7629      7632      7634      7631      7629      7632      7635
      7629      7632      7635      7636      7629      7632      7635      7637
      7629      7632      7635      7638      7633      7632      7635      7636
      7633      7632      7635      7637      7633      7632      7635      7638
      7634      7632      7635      7636      7634      7632      7635      7637
      7634      7632      7635      7638      7632      7635      7638      7639
      7632      7635      7638      7640      7632      7635      7638      7641
      7636      7635      7638      7639      7636      7635      7638      7640
      7636      7635      7638      7641      7637      7635      7638      7639
      7637      7635      7638      7640      7637      7635      7638      7641
      7635      7638      7641      7642      7635      7638      7641      7643
      7635      7638      7641      7644      7639      7638      7641      7642
      7639      7638      7641      7643      7639      7638      7641      7644
      7640      7638      7641      7642      7640      7638      7641      7643
      7640      7638      7641      7644      7638      7641      7644      7645
      7638      7641      7644      7646      7638      7641      7644      7647
      7642      7641      7644      7645      7642      7641      7644      7646
      7642      7641      7644      7647      7643      7641      7644      7645
      7643      7641      7644      7646      7643      7641      7644      7647
      7641      7644      7647      7648      7641      7644      7647      7649
      7641      7644      7647      7650      7645      7644      7647      7648
      7645      7644      7647      7649      7645      7644      7647      7650
      7646      7644      7647      7648      7646      7644      7647      7649
      7646      7644      7647      7650      7644      7647      7650      7651
      7644      7647      7650      7652      7644      7647      7650      7653
      7648      7647      7650      7651      7648      7647      7650      7652
      7648      7647      7650      7653      7649      7647      7650      7651
      7649      7647      7650      7652      7649      7647      7650      7653
      7647      7650      7653      7654      7647      7650      7653      7655
      7647      7650      7653      7656      7651      7650      7653      7654
      7651      7650      7653      7655      7651      7650      7653      7656
      7652      7650      7653      7654      7652      7650      7653      7655
      7652      7650      7653      7656      7650      7653      7656      7659
      7650      7653      7656      7657      7650      7653      7656      7658
      7654      7653      7656      7659      7654      7653      7656      7657
      7654      7653      7656      7658      7655      7653      7656      7659
      7655      7653      7656      7657      7655      7653      7656      7658
      7660      7659      7656      7653      7661      7659      7656      7653
      7660      7659      7656      7657      7661      7659      7656      7657
      7660      7659      7656      7658      7661      7659      7656      7658
      7656      7659      7661      7662      7660      7659      7661      7662
      7659      7661      7662      7663      7659      7661      7662      7664
      7659      7661      7662      7665      7661      7662      7665      7666
      7661      7662      7665      7667      7661      7662      7665      7694
      7663      7662      7665      7666      7663      7662      7665      7667
      7663      7662      7665      7694      7664      7662      7665      7666
      7664      7662      7665      7667      7664      7662      7665      7694
      7662      7665      7667      7668      7662      7665      7667      7669
      7662      7665      7667      7670      7662      7665      7694      7695
      7666      7665      7667      7668      7666      7665      7667      7669
      7666      7665      7667      7670      7666      7665      7694      7695
      7668      7667      7665      7694      7669      7667      7665      7694
      7670      7667      7665      7694      7667      7665      7694      7695
      7665      7667      7670      7671      7668      7667      7670      7671
      7669      7667      7670      7671      7667      7670      7671      7672
      7667      7670      7671      7692      7667      7670      7671      7693
      7670      7671      7672      7673      7673      7672      7671      7692
      7673      7672      7671      7693      7671      7672      7673      7674
      7671      7672      7673      7675      7671      7672      7673      7676
      7672      7673      7676      7677      7672      7673      7676      7678
      7672      7673      7676      7679      7674      7673      7676      7677
      7674      7673      7676      7678      7674      7673      7676      7679
      7675      7673      7676      7677      7675      7673      7676      7678
      7675      7673      7676      7679      7673      7676      7679      7680
      7673      7676      7679      7684      7673      7676      7679      7688
      7677      7676      7679      7680      7677      7676      7679      7684
      7677      7676      7679      7688      7678      7676      7679      7680
      7678      7676      7679      7684      7678      7676      7679      7688
      7676      7679      7680      7681      7676      7679      7680      7682
      7676      7679      7680      7683      7676      7679      7684      7685
      7676      7679      7684      7686      7676      7679      7684      7687
      7676      7679      7688      7689      7676      7679      7688      7690
      7676      7679      7688      7691      7681      7680      7679      7684
      7682      7680      7679      7684      7683      7680      7679      7684
      7680      7679      7684      7685      7680      7679      7684      7686
      7680      7679      7684      7687      7681      7680      7679      7688
      7682      7680      7679      7688      7683      7680      7679      7688
      7680      7679      7688      7689      7680      7679      7688      7690
      7680      7679      7688      7691      7685      7684      7679      7688
      7686      7684      7679      7688      7687      7684      7679      7688
      7684      7679      7688      7689      7684      7679      7688      7690
      7684      7679      7688      7691      7665      7694      7695      7697
      7665      7694      7695      7696      7698      7697      7695      7694
      7699      7697      7695      7694      7700      7697      7695      7694
      7698      7697      7695      7696      7699      7697      7695      7696
      7700      7697      7695      7696      7695      7697      7700      7701
      7695      7697      7700      7702      7695      7697      7700      7703
      7698      7697      7700      7701      7698      7697      7700      7702
      7698      7697      7700      7703      7699      7697      7700      7701
      7699      7697      7700      7702      7699      7697      7700      7703
      7697      7700      7703      7704      7697      7700      7703      7705
      7697      7700      7703      7706      7701      7700      7703      7704
      7701      7700      7703      7705      7701      7700      7703      7706
      7702      7700      7703      7704      7702      7700      7703      7705
      7702      7700      7703      7706      7700      7703      7706      7707
      7700      7703      7706      7708      7700      7703      7706      7709
      7704      7703      7706      7707      7704      7703      7706      7708
      7704      7703      7706      7709      7705      7703      7706      7707
      7705      7703      7706      7708      7705      7703      7706      7709
      7703      7706      7709      7710      7703      7706      7709      7711
      7703      7706      7709      7712      7707      7706      7709      7710
      7707      7706      7709      7711      7707      7706      7709      7712
      7708      7706      7709      7710      7708      7706      7709      7711
      7708      7706      7709      7712      7706      7709      7712      7713
      7706      7709      7712      7714      7706      7709      7712      7715
      7710      7709      7712      7713      7710      7709      7712      7714
      7710      7709      7712      7715      7711      7709      7712      7713
      7711      7709      7712      7714      7711      7709      7712      7715
      7709      7712      7715      7716      7709      7712      7715      7717
      7709      7712      7715      7718      7713      7712      7715      7716
      7713      7712      7715      7717      7713      7712      7715      7718
      7714      7712      7715      7716      7714      7712      7715      7717
      7714      7712      7715      7718      7712      7715      7718      7719
      7712      7715      7718      7720      7716      7715      7718      7719
      7716      7715      7718      7720      7717      7715      7718      7719
      7717      7715      7718      7720      7715      7718      7720      7721
      7715      7718      7720      7722      7719      7718      7720      7721
      7719      7718      7720      7722      7718      7720      7722      7723
      7718      7720      7722      7724      7718      7720      7722      7725
      7721      7720      7722      7723      7721      7720      7722      7724
      7721      7720      7722      7725      7720      7722      7725      7726
      7720      7722      7725      7727      7720      7722      7725      7728
      7723      7722      7725      7726      7723      7722      7725      7727
      7723      7722      7725      7728      7724      7722      7725      7726
      7724      7722      7725      7727      7724      7722      7725      7728
      7722      7725      7728      7729      7722      7725      7728      7730
      7722      7725      7728      7731      7726      7725      7728      7729
      7726      7725      7728      7730      7726      7725      7728      7731
      7727      7725      7728      7729      7727      7725      7728      7730
      7727      7725      7728      7731      7725      7728      7731      7732
      7725      7728      7731      7733      7725      7728      7731      7734
      7729      7728      7731      7732      7729      7728      7731      7733
      7729      7728      7731      7734      7730      7728      7731      7732
      7730      7728      7731      7733      7730      7728      7731      7734
      7728      7731      7734      7735      7728      7731      7734      7736
      7728      7731      7734      7737      7732      7731      7734      7735
      7732      7731      7734      7736      7732      7731      7734      7737
      7733      7731      7734      7735      7733      7731      7734      7736
      7733      7731      7734      7737      7731      7734      7737      7738
      7731      7734      7737      7739      7731      7734      7737      7740
      7735      7734      7737      7738      7735      7734      7737      7739
      7735      7734      7737      7740      7736      7734      7737      7738
      7736      7734      7737      7739      7736      7734      7737      7740
      7734      7737      7740      7741      7734      7737      7740      7742
      7734      7737      7740      7743      7738      7737      7740      7741
      7738      7737      7740      7742      7738      7737      7740      7743
      7739      7737      7740      7741      7739      7737      7740      7742
      7739      7737      7740      7743      7737      7740      7743      7744
      7737      7740      7743      7745      7737      7740      7743      7746
      7741      7740      7743      7744      7741      7740      7743      7745
      7741      7740      7743      7746      7742      7740      7743      7744
      7742      7740      7743      7745      7742      7740      7743      7746
      7748      7747      7751      7752      7748      7747      7751      7753
      7748      7747      7751      7754      7749      7747      7751      7752
      7749      7747      7751      7753      7749      7747      7751      7754
      7750      7747      7751      7752      7750      7747      7751      7753
      7750      7747      7751      7754      7747      7751      7754      7755
      7747      7751      7754      7756      7747      7751      7754      7757
      7752      7751      7754      7755      7752      7751      7754      7756
      7752      7751      7754      7757      7753      7751      7754      7755
      7753      7751      7754      7756      7753      7751      7754      7757
      7751      7754      7757      7758      7751      7754      7757      7759
      7751      7754      7757      7760      7755      7754      7757      7758
      7755      7754      7757      7759      7755      7754      7757      7760
      7756      7754      7757      7758      7756      7754      7757      7759
      7756      7754      7757      7760      7754      7757      7760      7761
      7754      7757      7760      7762      7754      7757      7760      7763
      7758      7757      7760      7761      7758      7757      7760      7762
      7758      7757      7760      7763      7759      7757      7760      7761
      7759      7757      7760      7762      7759      7757      7760      7763
      7757      7760      7763      7764      7757      7760      7763      7765
      7757      7760      7763      7766      7761      7760      7763      7764
      7761      7760      7763      7765      7761      7760      7763      7766
      7762      7760      7763      7764      7762      7760      7763      7765
      7762      7760      7763      7766      7760      7763      7766      7767
      7760      7763      7766      7768      7760      7763      7766      7769
      7764      7763      7766      7767      7764      7763      7766      7768
      7764      7763      7766      7769      7765      7763      7766      7767
      7765      7763      7766      7768      7765      7763      7766      7769
      7763      7766      7769      7770      7763      7766      7769      7771
      7763      7766      7769      7772      7767      7766      7769      7770
      7767      7766      7769      7771      7767      7766      7769      7772
      7768      7766      7769      7770      7768      7766      7769      7771
      7768      7766      7769      7772      7766      7769      7772      7773
      7766      7769      7772      7774      7766      7769      7772      7775
      7770      7769      7772      7773      7770      7769      7772      7774
      7770      7769      7772      7775      7771      7769      7772      7773
      7771      7769      7772      7774      7771      7769      7772      7775
      7769      7772      7775      7776      7769      7772      7775      7777
      7769      7772      7775      7778      7773      7772      7775      7776
      7773      7772      7775      7777      7773      7772      7775      7778
      7774      7772      7775      7776      7774      7772      7775      7777
      7774      7772      7775      7778      7772      7775      7778      7779
      7772      7775      7778      7780      7772      7775      7778      7781
      7776      7775      7778      7779      7776      7775      7778      7780
      7776      7775      7778      7781      7777      7775      7778      7779
      7777      7775      7778      7780      7777      7775      7778      7781
      7775      7778      7781      7782      7775      7778      7781      7783
      7775      7778      7781      7784      7779      7778      7781      7782
      7779      7778      7781      7783      7779      7778      7781      7784
      7780      7778      7781      7782      7780      7778      7781      7783
      7780      7778      7781      7784      7778      7781      7784      7785
      7778      7781      7784      7786      7778      7781      7784      7787
      7782      7781      7784      7785      7782      7781      7784      7786
      7782      7781      7784      7787      7783      7781      7784      7785
      7783      7781      7784      7786      7783      7781      7784      7787
      7781      7784      7787      7788      7781      7784      7787      7789
      7781      7784      7787      7790      7785      7784      7787      7788
      7785      7784      7787      7789      7785      7784      7787      7790
      7786      7784      7787      7788      7786      7784      7787      7789
      7786      7784      7787      7790      7784      7787      7790      7793
      7784      7787      7790      7791      7784      7787      7790      7792
      7788      7787      7790      7793      7788      7787      7790      7791
      7788      7787      7790      7792      7789      7787      7790      7793
      7789      7787      7790      7791      7789      7787      7790      7792
      7794      7793      7790      7787      7795      7793      7790      7787
      7794      7793      7790      7791      7795      7793      7790      7791
      7794      7793      7790      7792      7795      7793      7790      7792
      7790      7793      7795      7796      7794      7793      7795      7796
      7793      7795      7796      7797      7793      7795      7796      7798
      7793      7795      7796      7799      7795      7796      7799      7800
      7795      7796      7799      7801      7795      7796      7799      7828
      7797      7796      7799      7800      7797      7796      7799      7801
      7797      7796      7799      7828      7798      7796      7799      7800
      7798      7796      7799      7801      7798      7796      7799      7828
      7796      7799      7801      7802      7796      7799      7801      7803
      7796      7799      7801      7804      7796      7799      7828      7829
      7800      7799      7801      7802      7800      7799      7801      7803
      7800      7799      7801      7804      7800      7799      7828      7829
      7802      7801      7799      7828      7803      7801      7799      7828
      7804      7801      7799      7828      7801      7799      7828      7829
      7799      7801      7804      7805      7802      7801      7804      7805
      7803      7801      7804      7805      7801      7804      7805      7806
      7801      7804      7805      7826      7801      7804      7805      7827
      7804      7805      7806      7807      7807      7806      7805      7826
      7807      7806      7805      7827      7805      7806      7807      7808
      7805      7806      7807      7809      7805      7806      7807      7810
      7806      7807      7810      7811      7806      7807      7810      7812
      7806      7807      7810      7813      7808      7807      7810      7811
      7808      7807      7810      7812      7808      7807      7810      7813
      7809      7807      7810      7811      7809      7807      7810      7812
      7809      7807      7810      7813      7807      7810      7813      7814
      7807      7810      7813      7818      7807      7810      7813      7822
      7811      7810      7813      7814      7811      7810      7813      7818
      7811      7810      7813      7822      7812      7810      7813      7814
      7812      7810      7813      7818      7812      7810      7813      7822
      7810      7813      7814      7815      7810      7813      7814      7816
      7810      7813      7814      7817      7810      7813      7818      7819
      7810      7813      7818      7820      7810      7813      7818      7821
      7810      7813      7822      7823      7810      7813      7822      7824
      7810      7813      7822      7825      7815      7814      7813      7818
      7816      7814      7813      7818      7817      7814      7813      7818
      7814      7813      7818      7819      7814      7813      7818      7820
      7814      7813      7818      7821      7815      7814      7813      7822
      7816      7814      7813      7822      7817      7814      7813      7822
      7814      7813      7822      7823      7814      7813      7822      7824
      7814      7813      7822      7825      7819      7818      7813      7822
      7820      7818      7813      7822      7821      7818      7813      7822
      7818      7813      7822      7823      7818      7813      7822      7824
      7818      7813      7822      7825      7799      7828      7829      7831
      7799      7828      7829      7830      7832      7831      7829      7828
      7833      7831      7829      7828      7834      7831      7829      7828
      7832      7831      7829      7830      7833      7831      7829      7830
      7834      7831      7829      7830      7829      7831      7834      7835
      7829      7831      7834      7836      7829      7831      7834      7837
      7832      7831      7834      7835      7832      7831      7834      7836
      7832      7831      7834      7837      7833      7831      7834      7835
      7833      7831      7834      7836      7833      7831      7834      7837
      7831      7834      7837      7838      7831      7834      7837      7839
      7831      7834      7837      7840      7835      7834      7837      7838
      7835      7834      7837      7839      7835      7834      7837      7840
      7836      7834      7837      7838      7836      7834      7837      7839
      7836      7834      7837      7840      7834      7837      7840      7841
      7834      7837      7840      7842      7834      7837      7840      7843
      7838      7837      7840      7841      7838      7837      7840      7842
      7838      7837      7840      7843      7839      7837      7840      7841
      7839      7837      7840      7842      7839      7837      7840      7843
      7837      7840      7843      7844      7837      7840      7843      7845
      7837      7840      7843      7846      7841      7840      7843      7844
      7841      7840      7843      7845      7841      7840      7843      7846
      7842      7840      7843      7844      7842      7840      7843      7845
      7842      7840      7843      7846      7840      7843      7846      7847
      7840      7843      7846      7848      7840      7843      7846      7849
      7844      7843      7846      7847      7844      7843      7846      7848
      7844      7843      7846      7849      7845      7843      7846      7847
      7845      7843      7846      7848      7845      7843      7846      7849
      7843      7846      7849      7850      7843      7846      7849      7851
      7843      7846      7849      7852      7847      7846      7849      7850
      7847      7846      7849      7851      7847      7846      7849      7852
      7848      7846      7849      7850      7848      7846      7849      7851
      7848      7846      7849      7852      7846      7849      7852      7853
      7846      7849      7852      7854      7850      7849      7852      7853
      7850      7849      7852      7854      7851      7849      7852      7853
      7851      7849      7852      7854      7849      7852      7854      7855
      7849      7852      7854      7856      7853      7852      7854      7855
      7853      7852      7854      7856      7852      7854      7856      7857
      7852      7854      7856      7858      7852      7854      7856      7859
      7855      7854      7856      7857      7855      7854      7856      7858
      7855      7854      7856      7859      7854      7856      7859      7860
      7854      7856      7859      7861      7854      7856      7859      7862
      7857      7856      7859      7860      7857      7856      7859      7861
      7857      7856      7859      7862      7858      7856      7859      7860
      7858      7856      7859      7861      7858      7856      7859      7862
      7856      7859      7862      7863      7856      7859      7862      7864
      7856      7859      7862      7865      7860      7859      7862      7863
      7860      7859      7862      7864      7860      7859      7862      7865
      7861      7859      7862      7863      7861      7859      7862      7864
      7861      7859      7862      7865      7859      7862      7865      7866
      7859      7862      7865      7867      7859      7862      7865      7868
      7863      7862      7865      7866      7863      7862      7865      7867
      7863      7862      7865      7868      7864      7862      7865      7866
      7864      7862      7865      7867      7864      7862      7865      7868
      7862      7865      7868      7869      7862      7865      7868      7870
      7862      7865      7868      7871      7866      7865      7868      7869
      7866      7865      7868      7870      7866      7865      7868      7871
      7867      7865      7868      7869      7867      7865      7868      7870
      7867      7865      7868      7871      7865      7868      7871      7872
      7865      7868      7871      7873      7865      7868      7871      7874
      7869      7868      7871      7872      7869      7868      7871      7873
      7869      7868      7871      7874      7870      7868      7871      7872
      7870      7868      7871      7873      7870      7868      7871      7874
      7868      7871      7874      7875      7868      7871      7874      7876
      7868      7871      7874      7877      7872      7871      7874      7875
      7872      7871      7874      7876      7872      7871      7874      7877
      7873      7871      7874      7875      7873      7871      7874      7876
      7873      7871      7874      7877      7871      7874      7877      7878
      7871      7874      7877      7879      7871      7874      7877      7880
      7875      7874      7877      7878      7875      7874      7877      7879
      7875      7874      7877      7880      7876      7874      7877      7878
      7876      7874      7877      7879      7876      7874      7877      7880
      7882      7881      7885      7886      7882      7881      7885      7887
      7882      7881      7885      7888      7883      7881      7885      7886
      7883      7881      7885      7887      7883      7881      7885      7888
      7884      7881      7885      7886      7884      7881      7885      7887
      7884      7881      7885      7888      7881      7885      7888      7889
      7881      7885      7888      7890      7881      7885      7888      7891
      7886      7885      7888      7889      7886      7885      7888      7890
      7886      7885      7888      7891      7887      7885      7888      7889
      7887      7885      7888      7890      7887      7885      7888      7891
      7885      7888      7891      7892      7885      7888      7891      7893
      7885      7888      7891      7894      7889      7888      7891      7892
      7889      7888      7891      7893      7889      7888      7891      7894
      7890      7888      7891      7892      7890      7888      7891      7893
      7890      7888      7891      7894      7888      7891      7894      7895
      7888      7891      7894      7896      7888      7891      7894      7897
      7892      7891      7894      7895      7892      7891      7894      7896
      7892      7891      7894      7897      7893      7891      7894      7895
      7893      7891      7894      7896      7893      7891      7894      7897
      7891      7894      7897      7898      7891      7894      7897      7899
      7891      7894      7897      7900      7895      7894      7897      7898
      7895      7894      7897      7899      7895      7894      7897      7900
      7896      7894      7897      7898      7896      7894      7897      7899
      7896      7894      7897      7900      7894      7897      7900      7901
      7894      7897      7900      7902      7894      7897      7900      7903
      7898      7897      7900      7901      7898      7897      7900      7902
      7898      7897      7900      7903      7899      7897      7900      7901
      7899      7897      7900      7902      7899      7897      7900      7903
      7897      7900      7903      7904      7897      7900      7903      7905
      7897      7900      7903      7906      7901      7900      7903      7904
      7901      7900      7903      7905      7901      7900      7903      7906
      7902      7900      7903      7904      7902      7900      7903      7905
      7902      7900      7903      7906      7900      7903      7906      7907
      7900      7903      7906      7908      7900      7903      7906      7909
      7904      7903      7906      7907      7904      7903      7906      7908
      7904      7903      7906      7909      7905      7903      7906      7907
      7905      7903      7906      7908      7905      7903      7906      7909
      7903      7906      7909      7910      7903      7906      7909      7911
      7903      7906      7909      7912      7907      7906      7909      7910
      7907      7906      7909      7911      7907      7906      7909      7912
      7908      7906      7909      7910      7908      7906      7909      7911
      7908      7906      7909      7912      7906      7909      7912      7913
      7906      7909      7912      7914      7906      7909      7912      7915
      7910      7909      7912      7913      7910      7909      7912      7914
      7910      7909      7912      7915      7911      7909      7912      7913
      7911      7909      7912      7914      7911      7909      7912      7915
      7909      7912      7915      7916      7909      7912      7915      7917
      7909      7912      7915      7918      7913      7912      7915      7916
      7913      7912      7915      7917      7913      7912      7915      7918
      7914      7912      7915      7916      7914      7912      7915      7917
      7914      7912      7915      7918      7912      7915      7918      7919
      7912      7915      7918      7920      7912      7915      7918      7921
      7916      7915      7918      7919      7916      7915      7918      7920
      7916      7915      7918      7921      7917      7915      7918      7919
      7917      7915      7918      7920      7917      7915      7918      7921
      7915      7918      7921      7922      7915      7918      7921      7923
      7915      7918      7921      7924      7919      7918      7921      7922
      7919      7918      7921      7923      7919      7918      7921      7924
      7920      7918      7921      7922      7920      7918      7921      7923
      7920      7918      7921      7924      7918      7921      7924      7927
      7918      7921      7924      7925      7918      7921      7924      7926
      7922      7921      7924      7927      7922      7921      7924      7925
      7922      7921      7924      7926      7923      7921      7924      7927
      7923      7921      7924      7925      7923      7921      7924      7926
      7928      7927      7924      7921      7929      7927      7924      7921
      7928      7927      7924      7925      7929      7927      7924      7925
      7928      7927      7924      7926      7929      7927      7924      7926
      7924      7927      7929      7930      7928      7927      7929      7930
      7927      7929      7930      7931      7927      7929      7930      7932
      7927      7929      7930      7933      7929      7930      7933      7934
      7929      7930      7933      7935      7929      7930      7933      7962
      7931      7930      7933      7934      7931      7930      7933      7935
      7931      7930      7933      7962      7932      7930      7933      7934
      7932      7930      7933      7935      7932      7930      7933      7962
      7930      7933      7935      7936      7930      7933      7935      7937
      7930      7933      7935      7938      7930      7933      7962      7963
      7934      7933      7935      7936      7934      7933      7935      7937
      7934      7933      7935      7938      7934      7933      7962      7963
      7936      7935      7933      7962      7937      7935      7933      7962
      7938      7935      7933      7962      7935      7933      7962      7963
      7933      7935      7938      7939      7936      7935      7938      7939
      7937      7935      7938      7939      7935      7938      7939      7940
      7935      7938      7939      7960      7935      7938      7939      7961
      7938      7939      7940      7941      7941      7940      7939      7960
      7941      7940      7939      7961      7939      7940      7941      7942
      7939      7940      7941      7943      7939      7940      7941      7944
      7940      7941      7944      7945      7940      7941      7944      7946
      7940      7941      7944      7947      7942      7941      7944      7945
      7942      7941      7944      7946      7942      7941      7944      7947
      7943      7941      7944      7945      7943      7941      7944      7946
      7943      7941      7944      7947      7941      7944      7947      7948
      7941      7944      7947      7952      7941      7944      7947      7956
      7945      7944      7947      7948      7945      7944      7947      7952
      7945      7944      7947      7956      7946      7944      7947      7948
      7946      7944      7947      7952      7946      7944      7947      7956
      7944      7947      7948      7949      7944      7947      7948      7950
      7944      7947      7948      7951      7944      7947      7952      7953
      7944      7947      7952      7954      7944      7947      7952      7955
      7944      7947      7956      7957      7944      7947      7956      7958
      7944      7947      7956      7959      7949      7948      7947      7952
      7950      7948      7947      7952      7951      7948      7947      7952
      7948      7947      7952      7953      7948      7947      7952      7954
      7948      7947      7952      7955      7949      7948      7947      7956
      7950      7948      7947      7956      7951      7948      7947      7956
      7948      7947      7956      7957      7948      7947      7956      7958
      7948      7947      7956      7959      7953      7952      7947      7956
      7954      7952      7947      7956      7955      7952      7947      7956
      7952      7947      7956      7957      7952      7947      7956      7958
      7952      7947      7956      7959      7933      7962      7963      7965
      7933      7962      7963      7964      7966      7965      7963      7962
      7967      7965      7963      7962      7968      7965      7963      7962
      7966      7965      7963      7964      7967      7965      7963      7964
      7968      7965      7963      7964      7963      7965      7968      7969
      7963      7965      7968      7970      7963      7965      7968      7971
      7966      7965      7968      7969      7966      7965      7968      7970
      7966      7965      7968      7971      7967      7965      7968      7969
      7967      7965      7968      7970      7967      7965      7968      7971
      7965      7968      7971      7972      7965      7968      7971      7973
      7965      7968      7971      7974      7969      7968      7971      7972
      7969      7968      7971      7973      7969      7968      7971      7974
      7970      7968      7971      7972      7970      7968      7971      7973
      7970      7968      7971      7974      7968      7971      7974      7975
      7968      7971      7974      7976      7968      7971      7974      7977
      7972      7971      7974      7975      7972      7971      7974      7976
      7972      7971      7974      7977      7973      7971      7974      7975
      7973      7971      7974      7976      7973      7971      7974      7977
      7971      7974      7977      7978      7971      7974      7977      7979
      7971      7974      7977      7980      7975      7974      7977      7978
      7975      7974      7977      7979      7975      7974      7977      7980
      7976      7974      7977      7978      7976      7974      7977      7979
      7976      7974      7977      7980      7974      7977      7980      7981
      7974      7977      7980      7982      7974      7977      7980      7983
      7978      7977      7980      7981      7978      7977      7980      7982
      7978      7977      7980      7983      7979      7977      7980      7981
      7979      7977      7980      7982      7979      7977      7980      7983
      7977      7980      7983      7984      7977      7980      7983      7985
      7977      7980      7983      7986      7981      7980      7983      7984
      7981      7980      7983      7985      7981      7980      7983      7986
      7982      7980      7983      7984      7982      7980      7983      7985
      7982      7980      7983      7986      7980      7983      7986      7987
      7980      7983      7986      7988      7984      7983      7986      7987
      7984      7983      7986      7988      7985      7983      7986      7987
      7985      7983      7986      7988      7983      7986      7988      7989
      7983      7986      7988      7990      7987      7986      7988      7989
      7987      7986      7988      7990      7986      7988      7990      7991
      7986      7988      7990      7992      7986      7988      7990      7993
      7989      7988      7990      7991      7989      7988      7990      7992
      7989      7988      7990      7993      7988      7990      7993      7994
      7988      7990      7993      7995      7988      7990      7993      7996
      7991      7990      7993      7994      7991      7990      7993      7995
      7991      7990      7993      7996      7992      7990      7993      7994
      7992      7990      7993      7995      7992      7990      7993      7996
      7990      7993      7996      7997      7990      7993      7996      7998
      7990      7993      7996      7999      7994      7993      7996      7997
      7994      7993      7996      7998      7994      7993      7996      7999
      7995      7993      7996      7997      7995      7993      7996      7998
      7995      7993      7996      7999      7993      7996      7999      8000
      7993      7996      7999      8001      7993      7996      7999      8002
      7997      7996      7999      8000      7997      7996      7999      8001
      7997      7996      7999      8002      7998      7996      7999      8000
      7998      7996      7999      8001      7998      7996      7999      8002
      7996      7999      8002      8003      7996      7999      8002      8004
      7996      7999      8002      8005      8000      7999      8002      8003
      8000      7999      8002      8004      8000      7999      8002      8005
      8001      7999      8002      8003      8001      7999      8002      8004
      8001      7999      8002      8005      7999      8002      8005      8006
      7999      8002      8005      8007      7999      8002      8005      8008
      8003      8002      8005      8006      8003      8002      8005      8007
      8003      8002      8005      8008      8004      8002      8005      8006
      8004      8002      8005      8007      8004      8002      8005      8008
      8002      8005      8008      8009      8002      8005      8008      8010
      8002      8005      8008      8011      8006      8005      8008      8009
      8006      8005      8008      8010      8006      8005      8008      8011
      8007      8005      8008      8009      8007      8005      8008      8010
      8007      8005      8008      8011      8005      8008      8011      8012
      8005      8008      8011      8013      8005      8008      8011      8014
      8009      8008      8011      8012      8009      8008      8011      8013
      8009      8008      8011      8014      8010      8008      8011      8012
      8010      8008      8011      8013      8010      8008      8011      8014
      8016      8015      8019      8020      8016      8015      8019      8021
      8016      8015      8019      8022      8017      8015      8019      8020
      8017      8015      8019      8021      8017      8015      8019      8022
      8018      8015      8019      8020      8018      8015      8019      8021
      8018      8015      8019      8022      8015      8019      8022      8023
      8015      8019      8022      8024      8015      8019      8022      8025
      8020      8019      8022      8023      8020      8019      8022      8024
      8020      8019      8022      8025      8021      8019      8022      8023
      8021      8019      8022      8024      8021      8019      8022      8025
      8019      8022      8025      8026      8019      8022      8025      8027
      8019      8022      8025      8028      8023      8022      8025      8026
      8023      8022      8025      8027      8023      8022      8025      8028
      8024      8022      8025      8026      8024      8022      8025      8027
      8024      8022      8025      8028      8022      8025      8028      8029
      8022      8025      8028      8030      8022      8025      8028      8031
      8026      8025      8028      8029      8026      8025      8028      8030
      8026      8025      8028      8031      8027      8025      8028      8029
      8027      8025      8028      8030      8027      8025      8028      8031
      8025      8028      8031      8032      8025      8028      8031      8033
      8025      8028      8031      8034      8029      8028      8031      8032
      8029      8028      8031      8033      8029      8028      8031      8034
      8030      8028      8031      8032      8030      8028      8031      8033
      8030      8028      8031      8034      8028      8031      8034      8035
      8028      8031      8034      8036      8028      8031      8034      8037
      8032      8031      8034      8035      8032      8031      8034      8036
      8032      8031      8034      8037      8033      8031      8034      8035
      8033      8031      8034      8036      8033      8031      8034      8037
      8031      8034      8037      8038      8031      8034      8037      8039
      8031      8034      8037      8040      8035      8034      8037      8038
      8035      8034      8037      8039      8035      8034      8037      8040
      8036      8034      8037      8038      8036      8034      8037      8039
      8036      8034      8037      8040      8034      8037      8040      8041
      8034      8037      8040      8042      8034      8037      8040      8043
      8038      8037      8040      8041      8038      8037      8040      8042
      8038      8037      8040      8043      8039      8037      8040      8041
      8039      8037      8040      8042      8039      8037      8040      8043
      8037      8040      8043      8044      8037      8040      8043      8045
      8037      8040      8043      8046      8041      8040      8043      8044
      8041      8040      8043      8045      8041      8040      8043      8046
      8042      8040      8043      8044      8042      8040      8043      8045
      8042      8040      8043      8046      8040      8043      8046      8047
      8040      8043      8046      8048      8040      8043      8046      8049
      8044      8043      8046      8047      8044      8043      8046      8048
      8044      8043      8046      8049      8045      8043      8046      8047
      8045      8043      8046      8048      8045      8043      8046      8049
      8043      8046      8049      8050      8043      8046      8049      8051
      8043      8046      8049      8052      8047      8046      8049      8050
      8047      8046      8049      8051      8047      8046      8049      8052
      8048      8046      8049      8050      8048      8046      8049      8051
      8048      8046      8049      8052      8046      8049      8052      8053
      8046      8049      8052      8054      8046      8049      8052      8055
      8050      8049      8052      8053      8050      8049      8052      8054
      8050      8049      8052      8055      8051      8049      8052      8053
      8051      8049      8052      8054      8051      8049      8052      8055
      8049      8052      8055      8056      8049      8052      8055      8057
      8049      8052      8055      8058      8053      8052      8055      8056
      8053      8052      8055      8057      8053      8052      8055      8058
      8054      8052      8055      8056      8054      8052      8055      8057
      8054      8052      8055      8058      8052      8055      8058      8061
      8052      8055      8058      8059      8052      8055      8058      8060
      8056      8055      8058      8061      8056      8055      8058      8059
      8056      8055      8058      8060      8057      8055      8058      8061
      8057      8055      8058      8059      8057      8055      8058      8060
      8062      8061      8058      8055      8063      8061      8058      8055
      8062      8061      8058      8059      8063      8061      8058      8059
      8062      8061      8058      8060      8063      8061      8058      8060
      8058      8061      8063      8064      8062      8061      8063      8064
      8061      8063      8064      8065      8061      8063      8064      8066
      8061      8063      8064      8067      8063      8064      8067      8068
      8063      8064      8067      8069      8063      8064      8067      8096
      8065      8064      8067      8068      8065      8064      8067      8069
      8065      8064      8067      8096      8066      8064      8067      8068
      8066      8064      8067      8069      8066      8064      8067      8096
      8064      8067      8069      8070      8064      8067      8069      8071
      8064      8067      8069      8072      8064      8067      8096      8097
      8068      8067      8069      8070      8068      8067      8069      8071
      8068      8067      8069      8072      8068      8067      8096      8097
      8070      8069      8067      8096      8071      8069      8067      8096
      8072      8069      8067      8096      8069      8067      8096      8097
      8067      8069      8072      8073      8070      8069      8072      8073
      8071      8069      8072      8073      8069      8072      8073      8074
      8069      8072      8073      8094      8069      8072      8073      8095
      8072      8073      8074      8075      8075      8074      8073      8094
      8075      8074      8073      8095      8073      8074      8075      8076
      8073      8074      8075      8077      8073      8074      8075      8078
      8074      8075      8078      8079      8074      8075      8078      8080
      8074      8075      8078      8081      8076      8075      8078      8079
      8076      8075      8078      8080      8076      8075      8078      8081
      8077      8075      8078      8079      8077      8075      8078      8080
      8077      8075      8078      8081      8075      8078      8081      8082
      8075      8078      8081      8086      8075      8078      8081      8090
      8079      8078      8081      8082      8079      8078      8081      8086
      8079      8078      8081      8090      8080      8078      8081      8082
      8080      8078      8081      8086      8080      8078      8081      8090
      8078      8081      8082      8083      8078      8081      8082      8084
      8078      8081      8082      8085      8078      8081      8086      8087
      8078      8081      8086      8088      8078      8081      8086      8089
      8078      8081      8090      8091      8078      8081      8090      8092
      8078      8081      8090      8093      8083      8082      8081      8086
      8084      8082      8081      8086      8085      8082      8081      8086
      8082      8081      8086      8087      8082      8081      8086      8088
      8082      8081      8086      8089      8083      8082      8081      8090
      8084      8082      8081      8090      8085      8082      8081      8090
      8082      8081      8090      8091      8082      8081      8090      8092
      8082      8081      8090      8093      8087      8086      8081      8090
      8088      8086      8081      8090      8089      8086      8081      8090
      8086      8081      8090      8091      8086      8081      8090      8092
      8086      8081      8090      8093      8067      8096      8097      8099
      8067      8096      8097      8098      8100      8099      8097      8096
      8101      8099      8097      8096      8102      8099      8097      8096
      8100      8099      8097      8098      8101      8099      8097      8098
      8102      8099      8097      8098      8097      8099      8102      8103
      8097      8099      8102      8104      8097      8099      8102      8105
      8100      8099      8102      8103      8100      8099      8102      8104
      8100      8099      8102      8105      8101      8099      8102      8103
      8101      8099      8102      8104      8101      8099      8102      8105
      8099      8102      8105      8106      8099      8102      8105      8107
      8099      8102      8105      8108      8103      8102      8105      8106
      8103      8102      8105      8107      8103      8102      8105      8108
      8104      8102      8105      8106      8104      8102      8105      8107
      8104      8102      8105      8108      8102      8105      8108      8109
      8102      8105      8108      8110      8102      8105      8108      8111
      8106      8105      8108      8109      8106      8105      8108      8110
      8106      8105      8108      8111      8107      8105      8108      8109
      8107      8105      8108      8110      8107      8105      8108      8111
      8105      8108      8111      8112      8105      8108      8111      8113
      8105      8108      8111      8114      8109      8108      8111      8112
      8109      8108      8111      8113      8109      8108      8111      8114
      8110      8108      8111      8112      8110      8108      8111      8113
      8110      8108      8111      8114      8108      8111      8114      8115
      8108      8111      8114      8116      8108      8111      8114      8117
      8112      8111      8114      8115      8112      8111      8114      8116
      8112      8111      8114      8117      8113      8111      8114      8115
      8113      8111      8114      8116      8113      8111      8114      8117
      8111      8114      8117      8118      8111      8114      8117      8119
      8111      8114      8117      8120      8115      8114      8117      8118
      8115      8114      8117      8119      8115      8114      8117      8120
      8116      8114      8117      8118      8116      8114      8117      8119
      8116      8114      8117      8120      8114      8117      8120      8121
      8114      8117      8120      8122      8118      8117      8120      8121
      8118      8117      8120      8122      8119      8117      8120      8121
      8119      8117      8120      8122      8117      8120      8122      8123
      8117      8120      8122      8124      8121      8120      8122      8123
      8121      8120      8122      8124      8120      8122      8124      8125
      8120      8122      8124      8126      8120      8122      8124      8127
      8123      8122      8124      8125      8123      8122      8124      8126
      8123      8122      8124      8127      8122      8124      8127      8128
      8122      8124      8127      8129      8122      8124      8127      8130
      8125      8124      8127      8128      8125      8124      8127      8129
      8125      8124      8127      8130      8126      8124      8127      8128
      8126      8124      8127      8129      8126      8124      8127      8130
      8124      8127      8130      8131      8124      8127      8130      8132
      8124      8127      8130      8133      8128      8127      8130      8131
      8128      8127      8130      8132      8128      8127      8130      8133
      8129      8127      8130      8131      8129      8127      8130      8132
      8129      8127      8130      8133      8127      8130      8133      8134
      8127      8130      8133      8135      8127      8130      8133      8136
      8131      8130      8133      8134      8131      8130      8133      8135
      8131      8130      8133      8136      8132      8130      8133      8134
      8132      8130      8133      8135      8132      8130      8133      8136
      8130      8133      8136      8137      8130      8133      8136      8138
      8130      8133      8136      8139      8134      8133      8136      8137
      8134      8133      8136      8138      8134      8133      8136      8139
      8135      8133      8136      8137      8135      8133      8136      8138
      8135      8133      8136      8139      8133      8136      8139      8140
      8133      8136      8139      8141      8133      8136      8139      8142
      8137      8136      8139      8140      8137      8136      8139      8141
      8137      8136      8139      8142      8138      8136      8139      8140
      8138      8136      8139      8141      8138      8136      8139      8142
      8136      8139      8142      8143      8136      8139      8142      8144
      8136      8139      8142      8145      8140      8139      8142      8143
      8140      8139      8142      8144      8140      8139      8142      8145
      8141      8139      8142      8143      8141      8139      8142      8144
      8141      8139      8142      8145      8139      8142      8145      8146
      8139      8142      8145      8147      8139      8142      8145      8148
      8143      8142      8145      8146      8143      8142      8145      8147
      8143      8142      8145      8148      8144      8142      8145      8146
      8144      8142      8145      8147      8144      8142      8145      8148
      8150      8149      8153      8154      8150      8149      8153      8155
      8150      8149      8153      8156      8151      8149      8153      8154
      8151      8149      8153      8155      8151      8149      8153      8156
      8152      8149      8153      8154      8152      8149      8153      8155
      8152      8149      8153      8156      8149      8153      8156      8157
      8149      8153      8156      8158      8149      8153      8156      8159
      8154      8153      8156      8157      8154      8153      8156      8158
      8154      8153      8156      8159      8155      8153      8156      8157
      8155      8153      8156      8158      8155      8153      8156      8159
      8153      8156      8159      8160      8153      8156      8159      8161
      8153      8156      8159      8162      8157      8156      8159      8160
      8157      8156      8159      8161      8157      8156      8159      8162
      8158      8156      8159      8160      8158      8156      8159      8161
      8158      8156      8159      8162      8156      8159      8162      8163
      8156      8159      8162      8164      8156      8159      8162      8165
      8160      8159      8162      8163      8160      8159      8162      8164
      8160      8159      8162      8165      8161      8159      8162      8163
      8161      8159      8162      8164      8161      8159      8162      8165
      8159      8162      8165      8166      8159      8162      8165      8167
      8159      8162      8165      8168      8163      8162      8165      8166
      8163      8162      8165      8167      8163      8162      8165      8168
      8164      8162      8165      8166      8164      8162      8165      8167
      8164      8162      8165      8168      8162      8165      8168      8169
      8162      8165      8168      8170      8162      8165      8168      8171
      8166      8165      8168      8169      8166      8165      8168      8170
      8166      8165      8168      8171      8167      8165      8168      8169
      8167      8165      8168      8170      8167      8165      8168      8171
      8165      8168      8171      8172      8165      8168      8171      8173
      8165      8168      8171      8174      8169      8168      8171      8172
      8169      8168      8171      8173      8169      8168      8171      8174
      8170      8168      8171      8172      8170      8168      8171      8173
      8170      8168      8171      8174      8168      8171      8174      8175
      8168      8171      8174      8176      8168      8171      8174      8177
      8172      8171      8174      8175      8172      8171      8174      8176
      8172      8171      8174      8177      8173      8171      8174      8175
      8173      8171      8174      8176      8173      8171      8174      8177
      8171      8174      8177      8178      8171      8174      8177      8179
      8171      8174      8177      8180      8175      8174      8177      8178
      8175      8174      8177      8179      8175      8174      8177      8180
      8176      8174      8177      8178      8176      8174      8177      8179
      8176      8174      8177      8180      8174      8177      8180      8181
      8174      8177      8180      8182      8174      8177      8180      8183
      8178      8177      8180      8181      8178      8177      8180      8182
      8178      8177      8180      8183      8179      8177      8180      8181
      8179      8177      8180      8182      8179      8177      8180      8183
      8177      8180      8183      8184      8177      8180      8183      8185
      8177      8180      8183      8186      8181      8180      8183      8184
      8181      8180      8183      8185      8181      8180      8183      8186
      8182      8180      8183      8184      8182      8180      8183      8185
      8182      8180      8183      8186      8180      8183      8186      8187
      8180      8183      8186      8188      8180      8183      8186      8189
      8184      8183      8186      8187      8184      8183      8186      8188
      8184      8183      8186      8189      8185      8183      8186      8187
      8185      8183      8186      8188      8185      8183      8186      8189
      8183      8186      8189      8190      8183      8186      8189      8191
      8183      8186      8189      8192      8187      8186      8189      8190
      8187      8186      8189      8191      8187      8186      8189      8192
      8188      8186      8189      8190      8188      8186      8189      8191
      8188      8186      8189      8192      8186      8189      8192      8195
      8186      8189      8192      8193      8186      8189      8192      8194
      8190      8189      8192      8195      8190      8189      8192      8193
      8190      8189      8192      8194      8191      8189      8192      8195
      8191      8189      8192      8193      8191      8189      8192      8194
      8196      8195      8192      8189      8197      8195      8192      8189
      8196      8195      8192      8193      8197      8195      8192      8193
      8196      8195      8192      8194      8197      8195      8192      8194
      8192      8195      8197      8198      8196      8195      8197      8198
      8195      8197      8198      8199      8195      8197      8198      8200
      8195      8197      8198      8201      8197      8198      8201      8202
      8197      8198      8201      8203      8197      8198      8201      8230
      8199      8198      8201      8202      8199      8198      8201      8203
      8199      8198      8201      8230      8200      8198      8201      8202
      8200      8198      8201      8203      8200      8198      8201      8230
      8198      8201      8203      8204      8198      8201      8203      8205
      8198      8201      8203      8206      8198      8201      8230      8231
      8202      8201      8203      8204      8202      8201      8203      8205
      8202      8201      8203      8206      8202      8201      8230      8231
      8204      8203      8201      8230      8205      8203      8201      8230
      8206      8203      8201      8230      8203      8201      8230      8231
      8201      8203      8206      8207      8204      8203      8206      8207
      8205      8203      8206      8207      8203      8206      8207      8208
      8203      8206      8207      8228      8203      8206      8207      8229
      8206      8207      8208      8209      8209      8208      8207      8228
      8209      8208      8207      8229      8207      8208      8209      8210
      8207      8208      8209      8211      8207      8208      8209      8212
      8208      8209      8212      8213      8208      8209      8212      8214
      8208      8209      8212      8215      8210      8209      8212      8213
      8210      8209      8212      8214      8210      8209      8212      8215
      8211      8209      8212      8213      8211      8209      8212      8214
      8211      8209      8212      8215      8209      8212      8215      8216
      8209      8212      8215      8220      8209      8212      8215      8224
      8213      8212      8215      8216      8213      8212      8215      8220
      8213      8212      8215      8224      8214      8212      8215      8216
      8214      8212      8215      8220      8214      8212      8215      8224
      8212      8215      8216      8217      8212      8215      8216      8218
      8212      8215      8216      8219      8212      8215      8220      8221
      8212      8215      8220      8222      8212      8215      8220      8223
      8212      8215      8224      8225      8212      8215      8224      8226
      8212      8215      8224      8227      8217      8216      8215      8220
      8218      8216      8215      8220      8219      8216      8215      8220
      8216      8215      8220      8221      8216      8215      8220      8222
      8216      8215      8220      8223      8217      8216      8215      8224
      8218      8216      8215      8224      8219      8216      8215      8224
      8216      8215      8224      8225      8216      8215      8224      8226
      8216      8215      8224      8227      8221      8220      8215      8224
      8222      8220      8215      8224      8223      8220      8215      8224
      8220      8215      8224      8225      8220      8215      8224      8226
      8220      8215      8224      8227      8201      8230      8231      8233
      8201      8230      8231      8232      8234      8233      8231      8230
      8235      8233      8231      8230      8236      8233      8231      8230
      8234      8233      8231      8232      8235      8233      8231      8232
      8236      8233      8231      8232      8231      8233      8236      8237
      8231      8233      8236      8238      8231      8233      8236      8239
      8234      8233      8236      8237      8234      8233      8236      8238
      8234      8233      8236      8239      8235      8233      8236      8237
      8235      8233      8236      8238      8235      8233      8236      8239
      8233      8236      8239      8240      8233      8236      8239      8241
      8233      8236      8239      8242      8237      8236      8239      8240
      8237      8236      8239      8241      8237      8236      8239      8242
      8238      8236      8239      8240      8238      8236      8239      8241
      8238      8236      8239      8242      8236      8239      8242      8243
      8236      8239      8242      8244      8236      8239      8242      8245
      8240      8239      8242      8243      8240      8239      8242      8244
      8240      8239      8242      8245      8241      8239      8242      8243
      8241      8239      8242      8244      8241      8239      8242      8245
      8239      8242      8245      8246      8239      8242      8245      8247
      8239      8242      8245      8248      8243      8242      8245      8246
      8243      8242      8245      8247      8243      8242      8245      8248
      8244      8242      8245      8246      8244      8242      8245      8247
      8244      8242      8245      8248      8242      8245      8248      8249
      8242      8245      8248      8250      8242      8245      8248      8251
      8246      8245      8248      8249      8246      8245      8248      8250
      8246      8245      8248      8251      8247      8245      8248      8249
      8247      8245      8248      8250      8247      8245      8248      8251
      8245      8248      8251      8252      8245      8248      8251      8253
      8245      8248      8251      8254      8249      8248      8251      8252
      8249      8248      8251      8253      8249      8248      8251      8254
      8250      8248      8251      8252      8250      8248      8251      8253
      8250      8248      8251      8254      8248      8251      8254      8255
      8248      8251      8254      8256      8252      8251      8254      8255
      8252      8251      8254      8256      8253      8251      8254      8255
      8253      8251      8254      8256      8251      8254      8256      8257
      8251      8254      8256      8258      8255      8254      8256      8257
      8255      8254      8256      8258      8254      8256      8258      8259
      8254      8256      8258      8260      8254      8256      8258      8261
      8257      8256      8258      8259      8257      8256      8258      8260
      8257      8256      8258      8261      8256      8258      8261      8262
      8256      8258      8261      8263      8256      8258      8261      8264
      8259      8258      8261      8262      8259      8258      8261      8263
      8259      8258      8261      8264      8260      8258      8261      8262
      8260      8258      8261      8263      8260      8258      8261      8264
      8258      8261      8264      8265      8258      8261      8264      8266
      8258      8261      8264      8267      8262      8261      8264      8265
      8262      8261      8264      8266      8262      8261      8264      8267
      8263      8261      8264      8265      8263      8261      8264      8266
      8263      8261      8264      8267      8261      8264      8267      8268
      8261      8264      8267      8269      8261      8264      8267      8270
      8265      8264      8267      8268      8265      8264      8267      8269
      8265      8264      8267      8270      8266      8264      8267      8268
      8266      8264      8267      8269      8266      8264      8267      8270
      8264      8267      8270      8271      8264      8267      8270      8272
      8264      8267      8270      8273      8268      8267      8270      8271
      8268      8267      8270      8272      8268      8267      8270      8273
      8269      8267      8270      8271      8269      8267      8270      8272
      8269      8267      8270      8273      8267      8270      8273      8274
      8267      8270      8273      8275      8267      8270      8273      8276
      8271      8270      8273      8274      8271      8270      8273      8275
      8271      8270      8273      8276      8272      8270      8273      8274
      8272      8270      8273      8275      8272      8270      8273      8276
      8270      8273      8276      8277      8270      8273      8276      8278
      8270      8273      8276      8279      8274      8273      8276      8277
      8274      8273      8276      8278      8274      8273      8276      8279
      8275      8273      8276      8277      8275      8273      8276      8278
      8275      8273      8276      8279      8273      8276      8279      8280
      8273      8276      8279      8281      8273      8276      8279      8282
      8277      8276      8279      8280      8277      8276      8279      8281
      8277      8276      8279      8282      8278      8276      8279      8280
      8278      8276      8279      8281      8278      8276      8279      8282
      8284      8283      8287      8288      8284      8283      8287      8289
      8284      8283      8287      8290      8285      8283      8287      8288
      8285      8283      8287      8289      8285      8283      8287      8290
      8286      8283      8287      8288      8286      8283      8287      8289
      8286      8283      8287      8290      8283      8287      8290      8291
      8283      8287      8290      8292      8283      8287      8290      8293
      8288      8287      8290      8291      8288      8287      8290      8292
      8288      8287      8290      8293      8289      8287      8290      8291
      8289      8287      8290      8292      8289      8287      8290      8293
      8287      8290      8293      8294      8287      8290      8293      8295
      8287      8290      8293      8296      8291      8290      8293      8294
      8291      8290      8293      8295      8291      8290      8293      8296
      8292      8290      8293      8294      8292      8290      8293      8295
      8292      8290      8293      8296      8290      8293      8296      8297
      8290      8293      8296      8298      8290      8293      8296      8299
      8294      8293      8296      8297      8294      8293      8296      8298
      8294      8293      8296      8299      8295      8293      8296      8297
      8295      8293      8296      8298      8295      8293      8296      8299
      8293      8296      8299      8300      8293      8296      8299      8301
      8293      8296      8299      8302      8297      8296      8299      8300
      8297      8296      8299      8301      8297      8296      8299      8302
      8298      8296      8299      8300      8298      8296      8299      8301
      8298      8296      8299      8302      8296      8299      8302      8303
      8296      8299      8302      8304      8296      8299      8302      8305
      8300      8299      8302      8303      8300      8299      8302      8304
      8300      8299      8302      8305      8301      8299      8302      8303
      8301      8299      8302      8304      8301      8299      8302      8305
      8299      8302      8305      8306      8299      8302      8305      8307
      8299      8302      8305      8308      8303      8302      8305      8306
      8303      8302      8305      8307      8303      8302      8305      8308
      8304      8302      8305      8306      8304      8302      8305      8307
      8304      8302      8305      8308      8302      8305      8308      8309
      8302      8305      8308      8310      8302      8305      8308      8311
      8306      8305      8308      8309      8306      8305      8308      8310
      8306      8305      8308      8311      8307      8305      8308      8309
      8307      8305      8308      8310      8307      8305      8308      8311
      8305      8308      8311      8312      8305      8308      8311      8313
      8305      8308      8311      8314      8309      8308      8311      8312
      8309      8308      8311      8313      8309      8308      8311      8314
      8310      8308      8311      8312      8310      8308      8311      8313
      8310      8308      8311      8314      8308      8311      8314      8315
      8308      8311      8314      8316      8308      8311      8314      8317
      8312      8311      8314      8315      8312      8311      8314      8316
      8312      8311      8314      8317      8313      8311      8314      8315
      8313      8311      8314      8316      8313      8311      8314      8317
      8311      8314      8317      8318      8311      8314      8317      8319
      8311      8314      8317      8320      8315      8314      8317      8318
      8315      8314      8317      8319      8315      8314      8317      8320
      8316      8314      8317      8318      8316      8314      8317      8319
      8316      8314      8317      8320      8314      8317      8320      8321
      8314      8317      8320      8322      8314      8317      8320      8323
      8318      8317      8320      8321      8318      8317      8320      8322
      8318      8317      8320      8323      8319      8317      8320      8321
      8319      8317      8320      8322      8319      8317      8320      8323
      8317      8320      8323      8324      8317      8320      8323      8325
      8317      8320      8323      8326      8321      8320      8323      8324
      8321      8320      8323      8325      8321      8320      8323      8326
      8322      8320      8323      8324      8322      8320      8323      8325
      8322      8320      8323      8326      8320      8323      8326      8329
      8320      8323      8326      8327      8320      8323      8326      8328
      8324      8323      8326      8329      8324      8323      8326      8327
      8324      8323      8326      8328      8325      8323      8326      8329
      8325      8323      8326      8327      8325      8323      8326      8328
      8330      8329      8326      8323      8331      8329      8326      8323
      8330      8329      8326      8327      8331      8329      8326      8327
      8330      8329      8326      8328      8331      8329      8326      8328
      8326      8329      8331      8332      8330      8329      8331      8332
      8329      8331      8332      8333      8329      8331      8332      8334
      8329      8331      8332      8335      8331      8332      8335      8336
      8331      8332      8335      8337      8331      8332      8335      8364
      8333      8332      8335      8336      8333      8332      8335      8337
      8333      8332      8335      8364      8334      8332      8335      8336
      8334      8332      8335      8337      8334      8332      8335      8364
      8332      8335      8337      8338      8332      8335      8337      8339
      8332      8335      8337      8340      8332      8335      8364      8365
      8336      8335      8337      8338      8336      8335      8337      8339
      8336      8335      8337      8340      8336      8335      8364      8365
      8338      8337      8335      8364      8339      8337      8335      8364
      8340      8337      8335      8364      8337      8335      8364      8365
      8335      8337      8340      8341      8338      8337      8340      8341
      8339      8337      8340      8341      8337      8340      8341      8342
      8337      8340      8341      8362      8337      8340      8341      8363
      8340      8341      8342      8343      8343      8342      8341      8362
      8343      8342      8341      8363      8341      8342      8343      8344
      8341      8342      8343      8345      8341      8342      8343      8346
      8342      8343      8346      8347      8342      8343      8346      8348
      8342      8343      8346      8349      8344      8343      8346      8347
      8344      8343      8346      8348      8344      8343      8346      8349
      8345      8343      8346      8347      8345      8343      8346      8348
      8345      8343      8346      8349      8343      8346      8349      8350
      8343      8346      8349      8354      8343      8346      8349      8358
      8347      8346      8349      8350      8347      8346      8349      8354
      8347      8346      8349      8358      8348      8346      8349      8350
      8348      8346      8349      8354      8348      8346      8349      8358
      8346      8349      8350      8351      8346      8349      8350      8352
      8346      8349      8350      8353      8346      8349      8354      8355
      8346      8349      8354      8356      8346      8349      8354      8357
      8346      8349      8358      8359      8346      8349      8358      8360
      8346      8349      8358      8361      8351      8350      8349      8354
      8352      8350      8349      8354      8353      8350      8349      8354
      8350      8349      8354      8355      8350      8349      8354      8356
      8350      8349      8354      8357      8351      8350      8349      8358
      8352      8350      8349      8358      8353      8350      8349      8358
      8350      8349      8358      8359      8350      8349      8358      8360
      8350      8349      8358      8361      8355      8354      8349      8358
      8356      8354      8349      8358      8357      8354      8349      8358
      8354      8349      8358      8359      8354      8349      8358      8360
      8354      8349      8358      8361      8335      8364      8365      8367
      8335      8364      8365      8366      8368      8367      8365      8364
      8369      8367      8365      8364      8370      8367      8365      8364
      8368      8367      8365      8366      8369      8367      8365      8366
      8370      8367      8365      8366      8365      8367      8370      8371
      8365      8367      8370      8372      8365      8367      8370      8373
      8368      8367      8370      8371      8368      8367      8370      8372
      8368      8367      8370      8373      8369      8367      8370      8371
      8369      8367      8370      8372      8369      8367      8370      8373
      8367      8370      8373      8374      8367      8370      8373      8375
      8367      8370      8373      8376      8371      8370      8373      8374
      8371      8370      8373      8375      8371      8370      8373      8376
      8372      8370      8373      8374      8372      8370      8373      8375
      8372      8370      8373      8376      8370      8373      8376      8377
      8370      8373      8376      8378      8370      8373      8376      8379
      8374      8373      8376      8377      8374      8373      8376      8378
      8374      8373      8376      8379      8375      8373      8376      8377
      8375      8373      8376      8378      8375      8373      8376      8379
      8373      8376      8379      8380      8373      8376      8379      8381
      8373      8376      8379      8382      8377      8376      8379      8380
      8377      8376      8379      8381      8377      8376      8379      8382
      8378      8376      8379      8380      8378      8376      8379      8381
      8378      8376      8379      8382      8376      8379      8382      8383
      8376      8379      8382      8384      8376      8379      8382      8385
      8380      8379      8382      8383      8380      8379      8382      8384
      8380      8379      8382      8385      8381      8379      8382      8383
      8381      8379      8382      8384      8381      8379      8382      8385
      8379      8382      8385      8386      8379      8382      8385      8387
      8379      8382      8385      8388      8383      8382      8385      8386
      8383      8382      8385      8387      8383      8382      8385      8388
      8384      8382      8385      8386      8384      8382      8385      8387
      8384      8382      8385      8388      8382      8385      8388      8389
      8382      8385      8388      8390      8386      8385      8388      8389
      8386      8385      8388      8390      8387      8385      8388      8389
      8387      8385      8388      8390      8385      8388      8390      8391
      8385      8388      8390      8392      8389      8388      8390      8391
      8389      8388      8390      8392      8388      8390      8392      8393
      8388      8390      8392      8394      8388      8390      8392      8395
      8391      8390      8392      8393      8391      8390      8392      8394
      8391      8390      8392      8395      8390      8392      8395      8396
      8390      8392      8395      8397      8390      8392      8395      8398
      8393      8392      8395      8396      8393      8392      8395      8397
      8393      8392      8395      8398      8394      8392      8395      8396
      8394      8392      8395      8397      8394      8392      8395      8398
      8392      8395      8398      8399      8392      8395      8398      8400
      8392      8395      8398      8401      8396      8395      8398      8399
      8396      8395      8398      8400      8396      8395      8398      8401
      8397      8395      8398      8399      8397      8395      8398      8400
      8397      8395      8398      8401      8395      8398      8401      8402
      8395      8398      8401      8403      8395      8398      8401      8404
      8399      8398      8401      8402      8399      8398      8401      8403
      8399      8398      8401      8404      8400      8398      8401      8402
      8400      8398      8401      8403      8400      8398      8401      8404
      8398      8401      8404      8405      8398      8401      8404      8406
      8398      8401      8404      8407      8402      8401      8404      8405
      8402      8401      8404      8406      8402      8401      8404      8407
      8403      8401      8404      8405      8403      8401      8404      8406
      8403      8401      8404      8407      8401      8404      8407      8408
      8401      8404      8407      8409      8401      8404      8407      8410
      8405      8404      8407      8408      8405      8404      8407      8409
      8405      8404      8407      8410      8406      8404      8407      8408
      8406      8404      8407      8409      8406      8404      8407      8410
      8404      8407      8410      8411      8404      8407      8410      8412
      8404      8407      8410      8413      8408      8407      8410      8411
      8408      8407      8410      8412      8408      8407      8410      8413
      8409      8407      8410      8411      8409      8407      8410      8412
      8409      8407      8410      8413      8407      8410      8413      8414
      8407      8410      8413      8415      8407      8410      8413      8416
      8411      8410      8413      8414      8411      8410      8413      8415
      8411      8410      8413      8416      8412      8410      8413      8414
      8412      8410      8413      8415      8412      8410      8413      8416
      8418      8417      8421      8422      8418      8417      8421      8423
      8418      8417      8421      8424      8419      8417      8421      8422
      8419      8417      8421      8423      8419      8417      8421      8424
      8420      8417      8421      8422      8420      8417      8421      8423
      8420      8417      8421      8424      8417      8421      8424      8425
      8417      8421      8424      8426      8417      8421      8424      8427
      8422      8421      8424      8425      8422      8421      8424      8426
      8422      8421      8424      8427      8423      8421      8424      8425
      8423      8421      8424      8426      8423      8421      8424      8427
      8421      8424      8427      8428      8421      8424      8427      8429
      8421      8424      8427      8430      8425      8424      8427      8428
      8425      8424      8427      8429      8425      8424      8427      8430
      8426      8424      8427      8428      8426      8424      8427      8429
      8426      8424      8427      8430      8424      8427      8430      8431
      8424      8427      8430      8432      8424      8427      8430      8433
      8428      8427      8430      8431      8428      8427      8430      8432
      8428      8427      8430      8433      8429      8427      8430      8431
      8429      8427      8430      8432      8429      8427      8430      8433
      8427      8430      8433      8434      8427      8430      8433      8435
      8427      8430      8433      8436      8431      8430      8433      8434
      8431      8430      8433      8435      8431      8430      8433      8436
      8432      8430      8433      8434      8432      8430      8433      8435
      8432      8430      8433      8436      8430      8433      8436      8437
      8430      8433      8436      8438      8430      8433      8436      8439
      8434      8433      8436      8437      8434      8433      8436      8438
      8434      8433      8436      8439      8435      8433      8436      8437
      8435      8433      8436      8438      8435      8433      8436      8439
      8433      8436      8439      8440      8433      8436      8439      8441
      8433      8436      8439      8442      8437      8436      8439      8440
      8437      8436      8439      8441      8437      8436      8439      8442
      8438      8436      8439      8440      8438      8436      8439      8441
      8438      8436      8439      8442      8436      8439      8442      8443
      8436      8439      8442      8444      8436      8439      8442      8445
      8440      8439      8442      8443      8440      8439      8442      8444
      8440      8439      8442      8445      8441      8439      8442      8443
      8441      8439      8442      8444      8441      8439      8442      8445
      8439      8442      8445      8446      8439      8442      8445      8447
      8439      8442      8445      8448      8443      8442      8445      8446
      8443      8442      8445      8447      8443      8442      8445      8448
      8444      8442      8445      8446      8444      8442      8445      8447
      8444      8442      8445      8448      8442      8445      8448      8449
      8442      8445      8448      8450      8442      8445      8448      8451
      8446      8445      8448      8449      8446      8445      8448      8450
      8446      8445      8448      8451      8447      8445      8448      8449
      8447      8445      8448      8450      8447      8445      8448      8451
      8445      8448      8451      8452      8445      8448      8451      8453
      8445      8448      8451      8454      8449      8448      8451      8452
      8449      8448      8451      8453      8449      8448      8451      8454
      8450      8448      8451      8452      8450      8448      8451      8453
      8450      8448      8451      8454      8448      8451      8454      8455
      8448      8451      8454      8456      8448      8451      8454      8457
      8452      8451      8454      8455      8452      8451      8454      8456
      8452      8451      8454      8457      8453      8451      8454      8455
      8453      8451      8454      8456      8453      8451      8454      8457
      8451      8454      8457      8458      8451      8454      8457      8459
      8451      8454      8457      8460      8455      8454      8457      8458
      8455      8454      8457      8459      8455      8454      8457      8460
      8456      8454      8457      8458      8456      8454      8457      8459
      8456      8454      8457      8460      8454      8457      8460      8463
      8454      8457      8460      8461      8454      8457      8460      8462
      8458      8457      8460      8463      8458      8457      8460      8461
      8458      8457      8460      8462      8459      8457      8460      8463
      8459      8457      8460      8461      8459      8457      8460      8462
      8464      8463      8460      8457      8465      8463      8460      8457
      8464      8463      8460      8461      8465      8463      8460      8461
      8464      8463      8460      8462      8465      8463      8460      8462
      8460      8463      8465      8466      8464      8463      8465      8466
      8463      8465      8466      8467      8463      8465      8466      8468
      8463      8465      8466      8469      8465      8466      8469      8470
      8465      8466      8469      8471      8465      8466      8469      8498
      8467      8466      8469      8470      8467      8466      8469      8471
      8467      8466      8469      8498      8468      8466      8469      8470
      8468      8466      8469      8471      8468      8466      8469      8498
      8466      8469      8471      8472      8466      8469      8471      8473
      8466      8469      8471      8474      8466      8469      8498      8499
      8470      8469      8471      8472      8470      8469      8471      8473
      8470      8469      8471      8474      8470      8469      8498      8499
      8472      8471      8469      8498      8473      8471      8469      8498
      8474      8471      8469      8498      8471      8469      8498      8499
      8469      8471      8474      8475      8472      8471      8474      8475
      8473      8471      8474      8475      8471      8474      8475      8476
      8471      8474      8475      8496      8471      8474      8475      8497
      8474      8475      8476      8477      8477      8476      8475      8496
      8477      8476      8475      8497      8475      8476      8477      8478
      8475      8476      8477      8479      8475      8476      8477      8480
      8476      8477      8480      8481      8476      8477      8480      8482
      8476      8477      8480      8483      8478      8477      8480      8481
      8478      8477      8480      8482      8478      8477      8480      8483
      8479      8477      8480      8481      8479      8477      8480      8482
      8479      8477      8480      8483      8477      8480      8483      8484
      8477      8480      8483      8488      8477      8480      8483      8492
      8481      8480      8483      8484      8481      8480      8483      8488
      8481      8480      8483      8492      8482      8480      8483      8484
      8482      8480      8483      8488      8482      8480      8483      8492
      8480      8483      8484      8485      8480      8483      8484      8486
      8480      8483      8484      8487      8480      8483      8488      8489
      8480      8483      8488      8490      8480      8483      8488      8491
      8480      8483      8492      8493      8480      8483      8492      8494
      8480      8483      8492      8495      8485      8484      8483      8488
      8486      8484      8483      8488      8487      8484      8483      8488
      8484      8483      8488      8489      8484      8483      8488      8490
      8484      8483      8488      8491      8485      8484      8483      8492
      8486      8484      8483      8492      8487      8484      8483      8492
      8484      8483      8492      8493      8484      8483      8492      8494
      8484      8483      8492      8495      8489      8488      8483      8492
      8490      8488      8483      8492      8491      8488      8483      8492
      8488      8483      8492      8493      8488      8483      8492      8494
      8488      8483      8492      8495      8469      8498      8499      8501
      8469      8498      8499      8500      8502      8501      8499      8498
      8503      8501      8499      8498      8504      8501      8499      8498
      8502      8501      8499      8500      8503      8501      8499      8500
      8504      8501      8499      8500      8499      8501      8504      8505
      8499      8501      8504      8506      8499      8501      8504      8507
      8502      8501      8504      8505      8502      8501      8504      8506
      8502      8501      8504      8507      8503      8501      8504      8505
      8503      8501      8504      8506      8503      8501      8504      8507
      8501      8504      8507      8508      8501      8504      8507      8509
      8501      8504      8507      8510      8505      8504      8507      8508
      8505      8504      8507      8509      8505      8504      8507      8510
      8506      8504      8507      8508      8506      8504      8507      8509
      8506      8504      8507      8510      8504      8507      8510      8511
      8504      8507      8510      8512      8504      8507      8510      8513
      8508      8507      8510      8511      8508      8507      8510      8512
      8508      8507      8510      8513      8509      8507      8510      8511
      8509      8507      8510      8512      8509      8507      8510      8513
      8507      8510      8513      8514      8507      8510      8513      8515
      8507      8510      8513      8516      8511      8510      8513      8514
      8511      8510      8513      8515      8511      8510      8513      8516
      8512      8510      8513      8514      8512      8510      8513      8515
      8512      8510      8513      8516      8510      8513      8516      8517
      8510      8513      8516      8518      8510      8513      8516      8519
      8514      8513      8516      8517      8514      8513      8516      8518
      8514      8513      8516      8519      8515      8513      8516      8517
      8515      8513      8516      8518      8515      8513      8516      8519
      8513      8516      8519      8520      8513      8516      8519      8521
      8513      8516      8519      8522      8517      8516      8519      8520
      8517      8516      8519      8521      8517      8516      8519      8522
      8518      8516      8519      8520      8518      8516      8519      8521
      8518      8516      8519      8522      8516      8519      8522      8523
      8516      8519      8522      8524      8520      8519      8522      8523
      8520      8519      8522      8524      8521      8519      8522      8523
      8521      8519      8522      8524      8519      8522      8524      8525
      8519      8522      8524      8526      8523      8522      8524      8525
      8523      8522      8524      8526      8522      8524      8526      8527
      8522      8524      8526      8528      8522      8524      8526      8529
      8525      8524      8526      8527      8525      8524      8526      8528
      8525      8524      8526      8529      8524      8526      8529      8530
      8524      8526      8529      8531      8524      8526      8529      8532
      8527      8526      8529      8530      8527      8526      8529      8531
      8527      8526      8529      8532      8528      8526      8529      8530
      8528      8526      8529      8531      8528      8526      8529      8532
      8526      8529      8532      8533      8526      8529      8532      8534
      8526      8529      8532      8535      8530      8529      8532      8533
      8530      8529      8532      8534      8530      8529      8532      8535
      8531      8529      8532      8533      8531      8529      8532      8534
      8531      8529      8532      8535      8529      8532      8535      8536
      8529      8532      8535      8537      8529      8532      8535      8538
      8533      8532      8535      8536      8533      8532      8535      8537
      8533      8532      8535      8538      8534      8532      8535      8536
      8534      8532      8535      8537      8534      8532      8535      8538
      8532      8535      8538      8539      8532      8535      8538      8540
      8532      8535      8538      8541      8536      8535      8538      8539
      8536      8535      8538      8540      8536      8535      8538      8541
      8537      8535      8538      8539      8537      8535      8538      8540
      8537      8535      8538      8541      8535      8538      8541      8542
      8535      8538      8541      8543      8535      8538      8541      8544
      8539      8538      8541      8542      8539      8538      8541      8543
      8539      8538      8541      8544      8540      8538      8541      8542
      8540      8538      8541      8543      8540      8538      8541      8544
      8538      8541      8544      8545      8538      8541      8544      8546
      8538      8541      8544      8547      8542      8541      8544      8545
      8542      8541      8544      8546      8542      8541      8544      8547
      8543      8541      8544      8545      8543      8541      8544      8546
      8543      8541      8544      8547      8541      8544      8547      8548
      8541      8544      8547      8549      8541      8544      8547      8550
      8545      8544      8547      8548      8545      8544      8547      8549
      8545      8544      8547      8550      8546      8544      8547      8548
      8546      8544      8547      8549      8546      8544      8547      8550
      8552      8551      8555      8556      8552      8551      8555      8557
      8552      8551      8555      8558      8553      8551      8555      8556
      8553      8551      8555      8557      8553      8551      8555      8558
      8554      8551      8555      8556      8554      8551      8555      8557
      8554      8551      8555      8558      8551      8555      8558      8559
      8551      8555      8558      8560      8551      8555      8558      8561
      8556      8555      8558      8559      8556      8555      8558      8560
      8556      8555      8558      8561      8557      8555      8558      8559
      8557      8555      8558      8560      8557      8555      8558      8561
      8555      8558      8561      8562      8555      8558      8561      8563
      8555      8558      8561      8564      8559      8558      8561      8562
      8559      8558      8561      8563      8559      8558      8561      8564
      8560      8558      8561      8562      8560      8558      8561      8563
      8560      8558      8561      8564      8558      8561      8564      8565
      8558      8561      8564      8566      8558      8561      8564      8567
      8562      8561      8564      8565      8562      8561      8564      8566
      8562      8561      8564      8567      8563      8561      8564      8565
      8563      8561      8564      8566      8563      8561      8564      8567
      8561      8564      8567      8568      8561      8564      8567      8569
      8561      8564      8567      8570      8565      8564      8567      8568
      8565      8564      8567      8569      8565      8564      8567      8570
      8566      8564      8567      8568      8566      8564      8567      8569
      8566      8564      8567      8570      8564      8567      8570      8571
      8564      8567      8570      8572      8564      8567      8570      8573
      8568      8567      8570      8571      8568      8567      8570      8572
      8568      8567      8570      8573      8569      8567      8570      8571
      8569      8567      8570      8572      8569      8567      8570      8573
      8567      8570      8573      8574      8567      8570      8573      8575
      8567      8570      8573      8576      8571      8570      8573      8574
      8571      8570      8573      8575      8571      8570      8573      8576
      8572      8570      8573      8574      8572      8570      8573      8575
      8572      8570      8573      8576      8570      8573      8576      8577
      8570      8573      8576      8578      8570      8573      8576      8579
      8574      8573      8576      8577      8574      8573      8576      8578
      8574      8573      8576      8579      8575      8573      8576      8577
      8575      8573      8576      8578      8575      8573      8576      8579
      8573      8576      8579      8580      8573      8576      8579      8581
      8573      8576      8579      8582      8577      8576      8579      8580
      8577      8576      8579      8581      8577      8576      8579      8582
      8578      8576      8579      8580      8578      8576      8579      8581
      8578      8576      8579      8582      8576      8579      8582      8583
      8576      8579      8582      8584      8576      8579      8582      8585
      8580      8579      8582      8583      8580      8579      8582      8584
      8580      8579      8582      8585      8581      8579      8582      8583
      8581      8579      8582      8584      8581      8579      8582      8585
      8579      8582      8585      8586      8579      8582      8585      8587
      8579      8582      8585      8588      8583      8582      8585      8586
      8583      8582      8585      8587      8583      8582      8585      8588
      8584      8582      8585      8586      8584      8582      8585      8587
      8584      8582      8585      8588      8582      8585      8588      8589
      8582      8585      8588      8590      8582      8585      8588      8591
      8586      8585      8588      8589      8586      8585      8588      8590
      8586      8585      8588      8591      8587      8585      8588      8589
      8587      8585      8588      8590      8587      8585      8588      8591
      8585      8588      8591      8592      8585      8588      8591      8593
      8585      8588      8591      8594      8589      8588      8591      8592
      8589      8588      8591      8593      8589      8588      8591      8594
      8590      8588      8591      8592      8590      8588      8591      8593
      8590      8588      8591      8594      8588      8591      8594      8597
      8588      8591      8594      8595      8588      8591      8594      8596
      8592      8591      8594      8597      8592      8591      8594      8595
      8592      8591      8594      8596      8593      8591      8594      8597
      8593      8591      8594      8595      8593      8591      8594      8596
      8598      8597      8594      8591      8599      8597      8594      8591
      8598      8597      8594      8595      8599      8597      8594      8595
      8598      8597      8594      8596      8599      8597      8594      8596
      8594      8597      8599      8600      8598      8597      8599      8600
      8597      8599      8600      8601      8597      8599      8600      8602
      8597      8599      8600      8603      8599      8600      8603      8604
      8599      8600      8603      8605      8599      8600      8603      8632
      8601      8600      8603      8604      8601      8600      8603      8605
      8601      8600      8603      8632      8602      8600      8603      8604
      8602      8600      8603      8605      8602      8600      8603      8632
      8600      8603      8605      8606      8600      8603      8605      8607
      8600      8603      8605      8608      8600      8603      8632      8633
      8604      8603      8605      8606      8604      8603      8605      8607
      8604      8603      8605      8608      8604      8603      8632      8633
      8606      8605      8603      8632      8607      8605      8603      8632
      8608      8605      8603      8632      8605      8603      8632      8633
      8603      8605      8608      8609      8606      8605      8608      8609
      8607      8605      8608      8609      8605      8608      8609      8610
      8605      8608      8609      8630      8605      8608      8609      8631
      8608      8609      8610      8611      8611      8610      8609      8630
      8611      8610      8609      8631      8609      8610      8611      8612
      8609      8610      8611      8613      8609      8610      8611      8614
      8610      8611      8614      8615      8610      8611      8614      8616
      8610      8611      8614      8617      8612      8611      8614      8615
      8612      8611      8614      8616      8612      8611      8614      8617
      8613      8611      8614      8615      8613      8611      8614      8616
      8613      8611      8614      8617      8611      8614      8617      8618
      8611      8614      8617      8622      8611      8614      8617      8626
      8615      8614      8617      8618      8615      8614      8617      8622
      8615      8614      8617      8626      8616      8614      8617      8618
      8616      8614      8617      8622      8616      8614      8617      8626
      8614      8617      8618      8619      8614      8617      8618      8620
      8614      8617      8618      8621      8614      8617      8622      8623
      8614      8617      8622      8624      8614      8617      8622      8625
      8614      8617      8626      8627      8614      8617      8626      8628
      8614      8617      8626      8629      8619      8618      8617      8622
      8620      8618      8617      8622      8621      8618      8617      8622
      8618      8617      8622      8623      8618      8617      8622      8624
      8618      8617      8622      8625      8619      8618      8617      8626
      8620      8618      8617      8626      8621      8618      8617      8626
      8618      8617      8626      8627      8618      8617      8626      8628
      8618      8617      8626      8629      8623      8622      8617      8626
      8624      8622      8617      8626      8625      8622      8617      8626
      8622      8617      8626      8627      8622      8617      8626      8628
      8622      8617      8626      8629      8603      8632      8633      8635
      8603      8632      8633      8634      8636      8635      8633      8632
      8637      8635      8633      8632      8638      8635      8633      8632
      8636      8635      8633      8634      8637      8635      8633      8634
      8638      8635      8633      8634      8633      8635      8638      8639
      8633      8635      8638      8640      8633      8635      8638      8641
      8636      8635      8638      8639      8636      8635      8638      8640
      8636      8635      8638      8641      8637      8635      8638      8639
      8637      8635      8638      8640      8637      8635      8638      8641
      8635      8638      8641      8642      8635      8638      8641      8643
      8635      8638      8641      8644      8639      8638      8641      8642
      8639      8638      8641      8643      8639      8638      8641      8644
      8640      8638      8641      8642      8640      8638      8641      8643
      8640      8638      8641      8644      8638      8641      8644      8645
      8638      8641      8644      8646      8638      8641      8644      8647
      8642      8641      8644      8645      8642      8641      8644      8646
      8642      8641      8644      8647      8643      8641      8644      8645
      8643      8641      8644      8646      8643      8641      8644      8647
      8641      8644      8647      8648      8641      8644      8647      8649
      8641      8644      8647      8650      8645      8644      8647      8648
      8645      8644      8647      8649      8645      8644      8647      8650
      8646      8644      8647      8648      8646      8644      8647      8649
      8646      8644      8647      8650      8644      8647      8650      8651
      8644      8647      8650      8652      8644      8647      8650      8653
      8648      8647      8650      8651      8648      8647      8650      8652
      8648      8647      8650      8653      8649      8647      8650      8651
      8649      8647      8650      8652      8649      8647      8650      8653
      8647      8650      8653      8654      8647      8650      8653      8655
      8647      8650      8653      8656      8651      8650      8653      8654
      8651      8650      8653      8655      8651      8650      8653      8656
      8652      8650      8653      8654      8652      8650      8653      8655
      8652      8650      8653      8656      8650      8653      8656      8657
      8650      8653      8656      8658      8654      8653      8656      8657
      8654      8653      8656      8658      8655      8653      8656      8657
      8655      8653      8656      8658      8653      8656      8658      8659
      8653      8656      8658      8660      8657      8656      8658      8659
      8657      8656      8658      8660      8656      8658      8660      8661
      8656      8658      8660      8662      8656      8658      8660      8663
      8659      8658      8660      8661      8659      8658      8660      8662
      8659      8658      8660      8663      8658      8660      8663      8664
      8658      8660      8663      8665      8658      8660      8663      8666
      8661      8660      8663      8664      8661      8660      8663      8665
      8661      8660      8663      8666      8662      8660      8663      8664
      8662      8660      8663      8665      8662      8660      8663      8666
      8660      8663      8666      8667      8660      8663      8666      8668
      8660      8663      8666      8669      8664      8663      8666      8667
      8664      8663      8666      8668      8664      8663      8666      8669
      8665      8663      8666      8667      8665      8663      8666      8668
      8665      8663      8666      8669      8663      8666      8669      8670
      8663      8666      8669      8671      8663      8666      8669      8672
      8667      8666      8669      8670      8667      8666      8669      8671
      8667      8666      8669      8672      8668      8666      8669      8670
      8668      8666      8669      8671      8668      8666      8669      8672
      8666      8669      8672      8673      8666      8669      8672      8674
      8666      8669      8672      8675      8670      8669      8672      8673
      8670      8669      8672      8674      8670      8669      8672      8675
      8671      8669      8672      8673      8671      8669      8672      8674
      8671      8669      8672      8675      8669      8672      8675      8676
      8669      8672      8675      8677      8669      8672      8675      8678
      8673      8672      8675      8676      8673      8672      8675      8677
      8673      8672      8675      8678      8674      8672      8675      8676
      8674      8672      8675      8677      8674      8672      8675      8678
      8672      8675      8678      8679      8672      8675      8678      8680
      8672      8675      8678      8681      8676      8675      8678      8679
      8676      8675      8678      8680      8676      8675      8678      8681
      8677      8675      8678      8679      8677      8675      8678      8680
      8677      8675      8678      8681      8675      8678      8681      8682
      8675      8678      8681      8683      8675      8678      8681      8684
      8679      8678      8681      8682      8679      8678      8681      8683
      8679      8678      8681      8684      8680      8678      8681      8682
      8680      8678      8681      8683      8680      8678      8681      8684
      8686      8685      8689      8690      8686      8685      8689      8691
      8686      8685      8689      8692      8687      8685      8689      8690
      8687      8685      8689      8691      8687      8685      8689      8692
      8688      8685      8689      8690      8688      8685      8689      8691
      8688      8685      8689      8692      8685      8689      8692      8693
      8685      8689      8692      8694      8685      8689      8692      8695
      8690      8689      8692      8693      8690      8689      8692      8694
      8690      8689      8692      8695      8691      8689      8692      8693
      8691      8689      8692      8694      8691      8689      8692      8695
      8689      8692      8695      8696      8689      8692      8695      8697
      8689      8692      8695      8698      8693      8692      8695      8696
      8693      8692      8695      8697      8693      8692      8695      8698
      8694      8692      8695      8696      8694      8692      8695      8697
      8694      8692      8695      8698      8692      8695      8698      8699
      8692      8695      8698      8700      8692      8695      8698      8701
      8696      8695      8698      8699      8696      8695      8698      8700
      8696      8695      8698      8701      8697      8695      8698      8699
      8697      8695      8698      8700      8697      8695      8698      8701
      8695      8698      8701      8702      8695      8698      8701      8703
      8695      8698      8701      8704      8699      8698      8701      8702
      8699      8698      8701      8703      8699      8698      8701      8704
      8700      8698      8701      8702      8700      8698      8701      8703
      8700      8698      8701      8704      8698      8701      8704      8705
      8698      8701      8704      8706      8698      8701      8704      8707
      8702      8701      8704      8705      8702      8701      8704      8706
      8702      8701      8704      8707      8703      8701      8704      8705
      8703      8701      8704      8706      8703      8701      8704      8707
      8701      8704      8707      8708      8701      8704      8707      8709
      8701      8704      8707      8710      8705      8704      8707      8708
      8705      8704      8707      8709      8705      8704      8707      8710
      8706      8704      8707      8708      8706      8704      8707      8709
      8706      8704      8707      8710      8704      8707      8710      8711
      8704      8707      8710      8712      8704      8707      8710      8713
      8708      8707      8710      8711      8708      8707      8710      8712
      8708      8707      8710      8713      8709      8707      8710      8711
      8709      8707      8710      8712      8709      8707      8710      8713
      8707      8710      8713      8714      8707      8710      8713      8715
      8707      8710      8713      8716      8711      8710      8713      8714
      8711      8710      8713      8715      8711      8710      8713      8716
      8712      8710      8713      8714      8712      8710      8713      8715
      8712      8710      8713      8716      8710      8713      8716      8717
      8710      8713      8716      8718      8710      8713      8716      8719
      8714      8713      8716      8717      8714      8713      8716      8718
      8714      8713      8716      8719      8715      8713      8716      8717
      8715      8713      8716      8718      8715      8713      8716      8719
      8713      8716      8719      8720      8713      8716      8719      8721
      8713      8716      8719      8722      8717      8716      8719      8720
      8717      8716      8719      8721      8717      8716      8719      8722
      8718      8716      8719      8720      8718      8716      8719      8721
      8718      8716      8719      8722      8716      8719      8722      8723
      8716      8719      8722      8724      8716      8719      8722      8725
      8720      8719      8722      8723      8720      8719      8722      8724
      8720      8719      8722      8725      8721      8719      8722      8723
      8721      8719      8722      8724      8721      8719      8722      8725
      8719      8722      8725      8726      8719      8722      8725      8727
      8719      8722      8725      8728      8723      8722      8725      8726
      8723      8722      8725      8727      8723      8722      8725      8728
      8724      8722      8725      8726      8724      8722      8725      8727
      8724      8722      8725      8728      8722      8725      8728      8731
      8722      8725      8728      8729      8722      8725      8728      8730
      8726      8725      8728      8731      8726      8725      8728      8729
      8726      8725      8728      8730      8727      8725      8728      8731
      8727      8725      8728      8729      8727      8725      8728      8730
      8732      8731      8728      8725      8733      8731      8728      8725
      8732      8731      8728      8729      8733      8731      8728      8729
      8732      8731      8728      8730      8733      8731      8728      8730
      8728      8731      8733      8734      8732      8731      8733      8734
      8731      8733      8734      8735      8731      8733      8734      8736
      8731      8733      8734      8737      8733      8734      8737      8738
      8733      8734      8737      8739      8733      8734      8737      8766
      8735      8734      8737      8738      8735      8734      8737      8739
      8735      8734      8737      8766      8736      8734      8737      8738
      8736      8734      8737      8739      8736      8734      8737      8766
      8734      8737      8739      8740      8734      8737      8739      8741
      8734      8737      8739      8742      8734      8737      8766      8767
      8738      8737      8739      8740      8738      8737      8739      8741
      8738      8737      8739      8742      8738      8737      8766      8767
      8740      8739      8737      8766      8741      8739      8737      8766
      8742      8739      8737      8766      8739      8737      8766      8767
      8737      8739      8742      8743      8740      8739      8742      8743
      8741      8739      8742      8743      8739      8742      8743      8744
      8739      8742      8743      8764      8739      8742      8743      8765
      8742      8743      8744      8745      8745      8744      8743      8764
      8745      8744      8743      8765      8743      8744      8745      8746
      8743      8744      8745      8747      8743      8744      8745      8748
      8744      8745      8748      8749      8744      8745      8748      8750
      8744      8745      8748      8751      8746      8745      8748      8749
      8746      8745      8748      8750      8746      8745      8748      8751
      8747      8745      8748      8749      8747      8745      8748      8750
      8747      8745      8748      8751      8745      8748      8751      8752
      8745      8748      8751      8756      8745      8748      8751      8760
      8749      8748      8751      8752      8749      8748      8751      8756
      8749      8748      8751      8760      8750      8748      8751      8752
      8750      8748      8751      8756      8750      8748      8751      8760
      8748      8751      8752      8753      8748      8751      8752      8754
      8748      8751      8752      8755      8748      8751      8756      8757
      8748      8751      8756      8758      8748      8751      8756      8759
      8748      8751      8760      8761      8748      8751      8760      8762
      8748      8751      8760      8763      8753      8752      8751      8756
      8754      8752      8751      8756      8755      8752      8751      8756
      8752      8751      8756      8757      8752      8751      8756      8758
      8752      8751      8756      8759      8753      8752      8751      8760
      8754      8752      8751      8760      8755      8752      8751      8760
      8752      8751      8760      8761      8752      8751      8760      8762
      8752      8751      8760      8763      8757      8756      8751      8760
      8758      8756      8751      8760      8759      8756      8751      8760
      8756      8751      8760      8761      8756      8751      8760      8762
      8756      8751      8760      8763      8737      8766      8767      8769
      8737      8766      8767      8768      8770      8769      8767      8766
      8771      8769      8767      8766      8772      8769      8767      8766
      8770      8769      8767      8768      8771      8769      8767      8768
      8772      8769      8767      8768      8767      8769      8772      8773
      8767      8769      8772      8774      8767      8769      8772      8775
      8770      8769      8772      8773      8770      8769      8772      8774
      8770      8769      8772      8775      8771      8769      8772      8773
      8771      8769      8772      8774      8771      8769      8772      8775
      8769      8772      8775      8776      8769      8772      8775      8777
      8769      8772      8775      8778      8773      8772      8775      8776
      8773      8772      8775      8777      8773      8772      8775      8778
      8774      8772      8775      8776      8774      8772      8775      8777
      8774      8772      8775      8778      8772      8775      8778      8779
      8772      8775      8778      8780      8772      8775      8778      8781
      8776      8775      8778      8779      8776      8775      8778      8780
      8776      8775      8778      8781      8777      8775      8778      8779
      8777      8775      8778      8780      8777      8775      8778      8781
      8775      8778      8781      8782      8775      8778      8781      8783
      8775      8778      8781      8784      8779      8778      8781      8782
      8779      8778      8781      8783      8779      8778      8781      8784
      8780      8778      8781      8782      8780      8778      8781      8783
      8780      8778      8781      8784      8778      8781      8784      8785
      8778      8781      8784      8786      8778      8781      8784      8787
      8782      8781      8784      8785      8782      8781      8784      8786
      8782      8781      8784      8787      8783      8781      8784      8785
      8783      8781      8784      8786      8783      8781      8784      8787
      8781      8784      8787      8788      8781      8784      8787      8789
      8781      8784      8787      8790      8785      8784      8787      8788
      8785      8784      8787      8789      8785      8784      8787      8790
      8786      8784      8787      8788      8786      8784      8787      8789
      8786      8784      8787      8790      8784      8787      8790      8791
      8784      8787      8790      8792      8788      8787      8790      8791
      8788      8787      8790      8792      8789      8787      8790      8791
      8789      8787      8790      8792      8787      8790      8792      8793
      8787      8790      8792      8794      8791      8790      8792      8793
      8791      8790      8792      8794      8790      8792      8794      8795
      8790      8792      8794      8796      8790      8792      8794      8797
      8793      8792      8794      8795      8793      8792      8794      8796
      8793      8792      8794      8797      8792      8794      8797      8798
      8792      8794      8797      8799      8792      8794      8797      8800
      8795      8794      8797      8798      8795      8794      8797      8799
      8795      8794      8797      8800      8796      8794      8797      8798
      8796      8794      8797      8799      8796      8794      8797      8800
      8794      8797      8800      8801      8794      8797      8800      8802
      8794      8797      8800      8803      8798      8797      8800      8801
      8798      8797      8800      8802      8798      8797      8800      8803
      8799      8797      8800      8801      8799      8797      8800      8802
      8799      8797      8800      8803      8797      8800      8803      8804
      8797      8800      8803      8805      8797      8800      8803      8806
      8801      8800      8803      8804      8801      8800      8803      8805
      8801      8800      8803      8806      8802      8800      8803      8804
      8802      8800      8803      8805      8802      8800      8803      8806
      8800      8803      8806      8807      8800      8803      8806      8808
      8800      8803      8806      8809      8804      8803      8806      8807
      8804      8803      8806      8808      8804      8803      8806      8809
      8805      8803      8806      8807      8805      8803      8806      8808
      8805      8803      8806      8809      8803      8806      8809      8810
      8803      8806      8809      8811      8803      8806      8809      8812
      8807      8806      8809      8810      8807      8806      8809      8811
      8807      8806      8809      8812      8808      8806      8809      8810
      8808      8806      8809      8811      8808      8806      8809      8812
      8806      8809      8812      8813      8806      8809      8812      8814
      8806      8809      8812      8815      8810      8809      8812      8813
      8810      8809      8812      8814      8810      8809      8812      8815
      8811      8809      8812      8813      8811      8809      8812      8814
      8811      8809      8812      8815      8809      8812      8815      8816
      8809      8812      8815      8817      8809      8812      8815      8818
      8813      8812      8815      8816      8813      8812      8815      8817
      8813      8812      8815      8818      8814      8812      8815      8816
      8814      8812      8815      8817      8814      8812      8815      8818
      8820      8819      8823      8824      8820      8819      8823      8825
      8820      8819      8823      8826      8821      8819      8823      8824
      8821      8819      8823      8825      8821      8819      8823      8826
      8822      8819      8823      8824      8822      8819      8823      8825
      8822      8819      8823      8826      8819      8823      8826      8827
      8819      8823      8826      8828      8819      8823      8826      8829
      8824      8823      8826      8827      8824      8823      8826      8828
      8824      8823      8826      8829      8825      8823      8826      8827
      8825      8823      8826      8828      8825      8823      8826      8829
      8823      8826      8829      8830      8823      8826      8829      8831
      8823      8826      8829      8832      8827      8826      8829      8830
      8827      8826      8829      8831      8827      8826      8829      8832
      8828      8826      8829      8830      8828      8826      8829      8831
      8828      8826      8829      8832      8826      8829      8832      8833
      8826      8829      8832      8834      8826      8829      8832      8835
      8830      8829      8832      8833      8830      8829      8832      8834
      8830      8829      8832      8835      8831      8829      8832      8833
      8831      8829      8832      8834      8831      8829      8832      8835
      8829      8832      8835      8836      8829      8832      8835      8837
      8829      8832      8835      8838      8833      8832      8835      8836
      8833      8832      8835      8837      8833      8832      8835      8838
      8834      8832      8835      8836      8834      8832      8835      8837
      8834      8832      8835      8838      8832      8835      8838      8839
      8832      8835      8838      8840      8832      8835      8838      8841
      8836      8835      8838      8839      8836      8835      8838      8840
      8836      8835      8838      8841      8837      8835      8838      8839
      8837      8835      8838      8840      8837      8835      8838      8841
      8835      8838      8841      8842      8835      8838      8841      8843
      8835      8838      8841      8844      8839      8838      8841      8842
      8839      8838      8841      8843      8839      8838      8841      8844
      8840      8838      8841      8842      8840      8838      8841      8843
      8840      8838      8841      8844      8838      8841      8844      8845
      8838      8841      8844      8846      8838      8841      8844      8847
      8842      8841      8844      8845      8842      8841      8844      8846
      8842      8841      8844      8847      8843      8841      8844      8845
      8843      8841      8844      8846      8843      8841      8844      8847
      8841      8844      8847      8848      8841      8844      8847      8849
      8841      8844      8847      8850      8845      8844      8847      8848
      8845      8844      8847      8849      8845      8844      8847      8850
      8846      8844      8847      8848      8846      8844      8847      8849
      8846      8844      8847      8850      8844      8847      8850      8851
      8844      8847      8850      8852      8844      8847      8850      8853
      8848      8847      8850      8851      8848      8847      8850      8852
      8848      8847      8850      8853      8849      8847      8850      8851
      8849      8847      8850      8852      8849      8847      8850      8853
      8847      8850      8853      8854      8847      8850      8853      8855
      8847      8850      8853      8856      8851      8850      8853      8854
      8851      8850      8853      8855      8851      8850      8853      8856
      8852      8850      8853      8854      8852      8850      8853      8855
      8852      8850      8853      8856      8850      8853      8856      8857
      8850      8853      8856      8858      8850      8853      8856      8859
      8854      8853      8856      8857      8854      8853      8856      8858
      8854      8853      8856      8859      8855      8853      8856      8857
      8855      8853      8856      8858      8855      8853      8856      8859
      8853      8856      8859      8860      8853      8856      8859      8861
      8853      8856      8859      8862      8857      8856      8859      8860
      8857      8856      8859      8861      8857      8856      8859      8862
      8858      8856      8859      8860      8858      8856      8859      8861
      8858      8856      8859      8862      8856      8859      8862      8865
      8856      8859      8862      8863      8856      8859      8862      8864
      8860      8859      8862      8865      8860      8859      8862      8863
      8860      8859      8862      8864      8861      8859      8862      8865
      8861      8859      8862      8863      8861      8859      8862      8864
      8866      8865      8862      8859      8867      8865      8862      8859
      8866      8865      8862      8863      8867      8865      8862      8863
      8866      8865      8862      8864      8867      8865      8862      8864
      8862      8865      8867      8868      8866      8865      8867      8868
      8865      8867      8868      8869      8865      8867      8868      8870
      8865      8867      8868      8871      8867      8868      8871      8872
      8867      8868      8871      8873      8867      8868      8871      8900
      8869      8868      8871      8872      8869      8868      8871      8873
      8869      8868      8871      8900      8870      8868      8871      8872
      8870      8868      8871      8873      8870      8868      8871      8900
      8868      8871      8873      8874      8868      8871      8873      8875
      8868      8871      8873      8876      8868      8871      8900      8901
      8872      8871      8873      8874      8872      8871      8873      8875
      8872      8871      8873      8876      8872      8871      8900      8901
      8874      8873      8871      8900      8875      8873      8871      8900
      8876      8873      8871      8900      8873      8871      8900      8901
      8871      8873      8876      8877      8874      8873      8876      8877
      8875      8873      8876      8877      8873      8876      8877      8878
      8873      8876      8877      8898      8873      8876      8877      8899
      8876      8877      8878      8879      8879      8878      8877      8898
      8879      8878      8877      8899      8877      8878      8879      8880
      8877      8878      8879      8881      8877      8878      8879      8882
      8878      8879      8882      8883      8878      8879      8882      8884
      8878      8879      8882      8885      8880      8879      8882      8883
      8880      8879      8882      8884      8880      8879      8882      8885
      8881      8879      8882      8883      8881      8879      8882      8884
      8881      8879      8882      8885      8879      8882      8885      8886
      8879      8882      8885      8890      8879      8882      8885      8894
      8883      8882      8885      8886      8883      8882      8885      8890
      8883      8882      8885      8894      8884      8882      8885      8886
      8884      8882      8885      8890      8884      8882      8885      8894
      8882      8885      8886      8887      8882      8885      8886      8888
      8882      8885      8886      8889      8882      8885      8890      8891
      8882      8885      8890      8892      8882      8885      8890      8893
      8882      8885      8894      8895      8882      8885      8894      8896
      8882      8885      8894      8897      8887      8886      8885      8890
      8888      8886      8885      8890      8889      8886      8885      8890
      8886      8885      8890      8891      8886      8885      8890      8892
      8886      8885      8890      8893      8887      8886      8885      8894
      8888      8886      8885      8894      8889      8886      8885      8894
      8886      8885      8894      8895      8886      8885      8894      8896
      8886      8885      8894      8897      8891      8890      8885      8894
      8892      8890      8885      8894      8893      8890      8885      8894
      8890      8885      8894      8895      8890      8885      8894      8896
      8890      8885      8894      8897      8871      8900      8901      8903
      8871      8900      8901      8902      8904      8903      8901      8900
      8905      8903      8901      8900      8906      8903      8901      8900
      8904      8903      8901      8902      8905      8903      8901      8902
      8906      8903      8901      8902      8901      8903      8906      8907
      8901      8903      8906      8908      8901      8903      8906      8909
      8904      8903      8906      8907      8904      8903      8906      8908
      8904      8903      8906      8909      8905      8903      8906      8907
      8905      8903      8906      8908      8905      8903      8906      8909
      8903      8906      8909      8910      8903      8906      8909      8911
      8903      8906      8909      8912      8907      8906      8909      8910
      8907      8906      8909      8911      8907      8906      8909      8912
      8908      8906      8909      8910      8908      8906      8909      8911
      8908      8906      8909      8912      8906      8909      8912      8913
      8906      8909      8912      8914      8906      8909      8912      8915
      8910      8909      8912      8913      8910      8909      8912      8914
      8910      8909      8912      8915      8911      8909      8912      8913
      8911      8909      8912      8914      8911      8909      8912      8915
      8909      8912      8915      8916      8909      8912      8915      8917
      8909      8912      8915      8918      8913      8912      8915      8916
      8913      8912      8915      8917      8913      8912      8915      8918
      8914      8912      8915      8916      8914      8912      8915      8917
      8914      8912      8915      8918      8912      8915      8918      8919
      8912      8915      8918      8920      8912      8915      8918      8921
      8916      8915      8918      8919      8916      8915      8918      8920
      8916      8915      8918      8921      8917      8915      8918      8919
      8917      8915      8918      8920      8917      8915      8918      8921
      8915      8918      8921      8922      8915      8918      8921      8923
      8915      8918      8921      8924      8919      8918      8921      8922
      8919      8918      8921      8923      8919      8918      8921      8924
      8920      8918      8921      8922      8920      8918      8921      8923
      8920      8918      8921      8924      8918      8921      8924      8925
      8918      8921      8924      8926      8922      8921      8924      8925
      8922      8921      8924      8926      8923      8921      8924      8925
      8923      8921      8924      8926      8921      8924      8926      8927
      8921      8924      8926      8928      8925      8924      8926      8927
      8925      8924      8926      8928      8924      8926      8928      8929
      8924      8926      8928      8930      8924      8926      8928      8931
      8927      8926      8928      8929      8927      8926      8928      8930
      8927      8926      8928      8931      8926      8928      8931      8932
      8926      8928      8931      8933      8926      8928      8931      8934
      8929      8928      8931      8932      8929      8928      8931      8933
      8929      8928      8931      8934      8930      8928      8931      8932
      8930      8928      8931      8933      8930      8928      8931      8934
      8928      8931      8934      8935      8928      8931      8934      8936
      8928      8931      8934      8937      8932      8931      8934      8935
      8932      8931      8934      8936      8932      8931      8934      8937
      8933      8931      8934      8935      8933      8931      8934      8936
      8933      8931      8934      8937      8931      8934      8937      8938
      8931      8934      8937      8939      8931      8934      8937      8940
      8935      8934      8937      8938      8935      8934      8937      8939
      8935      8934      8937      8940      8936      8934      8937      8938
      8936      8934      8937      8939      8936      8934      8937      8940
      8934      8937      8940      8941      8934      8937      8940      8942
      8934      8937      8940      8943      8938      8937      8940      8941
      8938      8937      8940      8942      8938      8937      8940      8943
      8939      8937      8940      8941      8939      8937      8940      8942
      8939      8937      8940      8943      8937      8940      8943      8944
      8937      8940      8943      8945      8937      8940      8943      8946
      8941      8940      8943      8944      8941      8940      8943      8945
      8941      8940      8943      8946      8942      8940      8943      8944
      8942      8940      8943      8945      8942      8940      8943      8946
      8940      8943      8946      8947      8940      8943      8946      8948
      8940      8943      8946      8949      8944      8943      8946      8947
      8944      8943      8946      8948      8944      8943      8946      8949
      8945      8943      8946      8947      8945      8943      8946      8948
      8945      8943      8946      8949      8943      8946      8949      8950
      8943      8946      8949      8951      8943      8946      8949      8952
      8947      8946      8949      8950      8947      8946      8949      8951
      8947      8946      8949      8952      8948      8946      8949      8950
      8948      8946      8949      8951      8948      8946      8949      8952
      8954      8953      8957      8958      8954      8953      8957      8959
      8954      8953      8957      8960      8955      8953      8957      8958
      8955      8953      8957      8959      8955      8953      8957      8960
      8956      8953      8957      8958      8956      8953      8957      8959
      8956      8953      8957      8960      8953      8957      8960      8961
      8953      8957      8960      8962      8953      8957      8960      8963
      8958      8957      8960      8961      8958      8957      8960      8962
      8958      8957      8960      8963      8959      8957      8960      8961
      8959      8957      8960      8962      8959      8957      8960      8963
      8957      8960      8963      8964      8957      8960      8963      8965
      8957      8960      8963      8966      8961      8960      8963      8964
      8961      8960      8963      8965      8961      8960      8963      8966
      8962      8960      8963      8964      8962      8960      8963      8965
      8962      8960      8963      8966      8960      8963      8966      8967
      8960      8963      8966      8968      8960      8963      8966      8969
      8964      8963      8966      8967      8964      8963      8966      8968
      8964      8963      8966      8969      8965      8963      8966      8967
      8965      8963      8966      8968      8965      8963      8966      8969
      8963      8966      8969      8970      8963      8966      8969      8971
      8963      8966      8969      8972      8967      8966      8969      8970
      8967      8966      8969      8971      8967      8966      8969      8972
      8968      8966      8969      8970      8968      8966      8969      8971
      8968      8966      8969      8972      8966      8969      8972      8973
      8966      8969      8972      8974      8966      8969      8972      8975
      8970      8969      8972      8973      8970      8969      8972      8974
      8970      8969      8972      8975      8971      8969      8972      8973
      8971      8969      8972      8974      8971      8969      8972      8975
      8969      8972      8975      8976      8969      8972      8975      8977
      8969      8972      8975      8978      8973      8972      8975      8976
      8973      8972      8975      8977      8973      8972      8975      8978
      8974      8972      8975      8976      8974      8972      8975      8977
      8974      8972      8975      8978      8972      8975      8978      8979
      8972      8975      8978      8980      8972      8975      8978      8981
      8976      8975      8978      8979      8976      8975      8978      8980
      8976      8975      8978      8981      8977      8975      8978      8979
      8977      8975      8978      8980      8977      8975      8978      8981
      8975      8978      8981      8982      8975      8978      8981      8983
      8975      8978      8981      8984      8979      8978      8981      8982
      8979      8978      8981      8983      8979      8978      8981      8984
      8980      8978      8981      8982      8980      8978      8981      8983
      8980      8978      8981      8984      8978      8981      8984      8985
      8978      8981      8984      8986      8978      8981      8984      8987
      8982      8981      8984      8985      8982      8981      8984      8986
      8982      8981      8984      8987      8983      8981      8984      8985
      8983      8981      8984      8986      8983      8981      8984      8987
      8981      8984      8987      8988      8981      8984      8987      8989
      8981      8984      8987      8990      8985      8984      8987      8988
      8985      8984      8987      8989      8985      8984      8987      8990
      8986      8984      8987      8988      8986      8984      8987      8989
      8986      8984      8987      8990      8984      8987      8990      8991
      8984      8987      8990      8992      8984      8987      8990      8993
      8988      8987      8990      8991      8988      8987      8990      8992
      8988      8987      8990      8993      8989      8987      8990      8991
      8989      8987      8990      8992      8989      8987      8990      8993
      8987      8990      8993      8994      8987      8990      8993      8995
      8987      8990      8993      8996      8991      8990      8993      8994
      8991      8990      8993      8995      8991      8990      8993      8996
      8992      8990      8993      8994      8992      8990      8993      8995
      8992      8990      8993      8996      8990      8993      8996      8999
      8990      8993      8996      8997      8990      8993      8996      8998
      8994      8993      8996      8999      8994      8993      8996      8997
      8994      8993      8996      8998      8995      8993      8996      8999
      8995      8993      8996      8997      8995      8993      8996      8998
      9000      8999      8996      8993      9001      8999      8996      8993
      9000      8999      8996      8997      9001      8999      8996      8997
      9000      8999      8996      8998      9001      8999      8996      8998
      8996      8999      9001      9002      9000      8999      9001      9002
      8999      9001      9002      9003      8999      9001      9002      9004
      8999      9001      9002      9005      9001      9002      9005      9006
      9001      9002      9005      9007      9001      9002      9005      9034
      9003      9002      9005      9006      9003      9002      9005      9007
      9003      9002      9005      9034      9004      9002      9005      9006
      9004      9002      9005      9007      9004      9002      9005      9034
      9002      9005      9007      9008      9002      9005      9007      9009
      9002      9005      9007      9010      9002      9005      9034      9035
      9006      9005      9007      9008      9006      9005      9007      9009
      9006      9005      9007      9010      9006      9005      9034      9035
      9008      9007      9005      9034      9009      9007      9005      9034
      9010      9007      9005      9034      9007      9005      9034      9035
      9005      9007      9010      9011      9008      9007      9010      9011
      9009      9007      9010      9011      9007      9010      9011      9012
      9007      9010      9011      9032      9007      9010      9011      9033
      9010      9011      9012      9013      9013      9012      9011      9032
      9013      9012      9011      9033      9011      9012      9013      9014
      9011      9012      9013      9015      9011      9012      9013      9016
      9012      9013      9016      9017      9012      9013      9016      9018
      9012      9013      9016      9019      9014      9013      9016      9017
      9014      9013      9016      9018      9014      9013      9016      9019
      9015      9013      9016      9017      9015      9013      9016      9018
      9015      9013      9016      9019      9013      9016      9019      9020
      9013      9016      9019      9024      9013      9016      9019      9028
      9017      9016      9019      9020      9017      9016      9019      9024
      9017      9016      9019      9028      9018      9016      9019      9020
      9018      9016      9019      9024      9018      9016      9019      9028
      9016      9019      9020      9021      9016      9019      9020      9022
      9016      9019      9020      9023      9016      9019      9024      9025
      9016      9019      9024      9026      9016      9019      9024      9027
      9016      9019      9028      9029      9016      9019      9028      9030
      9016      9019      9028      9031      9021      9020      9019      9024
      9022      9020      9019      9024      9023      9020      9019      9024
      9020      9019      9024      9025      9020      9019      9024      9026
      9020      9019      9024      9027      9021      9020      9019      9028
      9022      9020      9019      9028      9023      9020      9019      9028
      9020      9019      9028      9029      9020      9019      9028      9030
      9020      9019      9028      9031      9025      9024      9019      9028
      9026      9024      9019      9028      9027      9024      9019      9028
      9024      9019      9028      9029      9024      9019      9028      9030
      9024      9019      9028      9031      9005      9034      9035      9037
      9005      9034      9035      9036      9038      9037      9035      9034
      9039      9037      9035      9034      9040      9037      9035      9034
      9038      9037      9035      9036      9039      9037      9035      9036
      9040      9037      9035      9036      9035      9037      9040      9041
      9035      9037      9040      9042      9035      9037      9040      9043
      9038      9037      9040      9041      9038      9037      9040      9042
      9038      9037      9040      9043      9039      9037      9040      9041
      9039      9037      9040      9042      9039      9037      9040      9043
      9037      9040      9043      9044      9037      9040      9043      9045
      9037      9040      9043      9046      9041      9040      9043      9044
      9041      9040      9043      9045      9041      9040      9043      9046
      9042      9040      9043      9044      9042      9040      9043      9045
      9042      9040      9043      9046      9040      9043      9046      9047
      9040      9043      9046      9048      9040      9043      9046      9049
      9044      9043      9046      9047      9044      9043      9046      9048
      9044      9043      9046      9049      9045      9043      9046      9047
      9045      9043      9046      9048      9045      9043      9046      9049
      9043      9046      9049      9050      9043      9046      9049      9051
      9043      9046      9049      9052      9047      9046      9049      9050
      9047      9046      9049      9051      9047      9046      9049      9052
      9048      9046      9049      9050      9048      9046      9049      9051
      9048      9046      9049      9052      9046      9049      9052      9053
      9046      9049      9052      9054      9046      9049      9052      9055
      9050      9049      9052      9053      9050      9049      9052      9054
      9050      9049      9052      9055      9051      9049      9052      9053
      9051      9049      9052      9054      9051      9049      9052      9055
      9049      9052      9055      9056      9049      9052      9055      9057
      9049      9052      9055      9058      9053      9052      9055      9056
      9053      9052      9055      9057      9053      9052      9055      9058
      9054      9052      9055      9056      9054      9052      9055      9057
      9054      9052      9055      9058      9052      9055      9058      9059
      9052      9055      9058      9060      9056      9055      9058      9059
      9056      9055      9058      9060      9057      9055      9058      9059
      9057      9055      9058      9060      9055      9058      9060      9061
      9055      9058      9060      9062      9059      9058      9060      9061
      9059      9058      9060      9062      9058      9060      9062      9063
      9058      9060      9062      9064      9058      9060      9062      9065
      9061      9060      9062      9063      9061      9060      9062      9064
      9061      9060      9062      9065      9060      9062      9065      9066
      9060      9062      9065      9067      9060      9062      9065      9068
      9063      9062      9065      9066      9063      9062      9065      9067
      9063      9062      9065      9068      9064      9062      9065      9066
      9064      9062      9065      9067      9064      9062      9065      9068
      9062      9065      9068      9069      9062      9065      9068      9070
      9062      9065      9068      9071      9066      9065      9068      9069
      9066      9065      9068      9070      9066      9065      9068      9071
      9067      9065      9068      9069      9067      9065      9068      9070
      9067      9065      9068      9071      9065      9068      9071      9072
      9065      9068      9071      9073      9065      9068      9071      9074
      9069      9068      9071      9072      9069      9068      9071      9073
      9069      9068      9071      9074      9070      9068      9071      9072
      9070      9068      9071      9073      9070      9068      9071      9074
      9068      9071      9074      9075      9068      9071      9074      9076
      9068      9071      9074      9077      9072      9071      9074      9075
      9072      9071      9074      9076      9072      9071      9074      9077
      9073      9071      9074      9075      9073      9071      9074      9076
      9073      9071      9074      9077      9071      9074      9077      9078
      9071      9074      9077      9079      9071      9074      9077      9080
      9075      9074      9077      9078      9075      9074      9077      9079
      9075      9074      9077      9080      9076      9074      9077      9078
      9076      9074      9077      9079      9076      9074      9077      9080
      9074      9077      9080      9081      9074      9077      9080      9082
      9074      9077      9080      9083      9078      9077      9080      9081
      9078      9077      9080      9082      9078      9077      9080      9083
      9079      9077      9080      9081      9079      9077      9080      9082
      9079      9077      9080      9083      9077      9080      9083      9084
      9077      9080      9083      9085      9077      9080      9083      9086
      9081      9080      9083      9084      9081      9080      9083      9085
      9081      9080      9083      9086      9082      9080      9083      9084
      9082      9080      9083      9085      9082      9080      9083      9086
      9088      9087      9091      9092      9088      9087      9091      9093
      9088      9087      9091      9094      9089      9087      9091      9092
      9089      9087      9091      9093      9089      9087      9091      9094
      9090      9087      9091      9092      9090      9087      9091      9093
      9090      9087      9091      9094      9087      9091      9094      9095
      9087      9091      9094      9096      9087      9091      9094      9097
      9092      9091      9094      9095      9092      9091      9094      9096
      9092      9091      9094      9097      9093      9091      9094      9095
      9093      9091      9094      9096      9093      9091      9094      9097
      9091      9094      9097      9098      9091      9094      9097      9099
      9091      9094      9097      9100      9095      9094      9097      9098
      9095      9094      9097      9099      9095      9094      9097      9100
      9096      9094      9097      9098      9096      9094      9097      9099
      9096      9094      9097      9100      9094      9097      9100      9101
      9094      9097      9100      9102      9094      9097      9100      9103
      9098      9097      9100      9101      9098      9097      9100      9102
      9098      9097      9100      9103      9099      9097      9100      9101
      9099      9097      9100      9102      9099      9097      9100      9103
      9097      9100      9103      9104      9097      9100      9103      9105
      9097      9100      9103      9106      9101      9100      9103      9104
      9101      9100      9103      9105      9101      9100      9103      9106
      9102      9100      9103      9104      9102      9100      9103      9105
      9102      9100      9103      9106      9100      9103      9106      9107
      9100      9103      9106      9108      9100      9103      9106      9109
      9104      9103      9106      9107      9104      9103      9106      9108
      9104      9103      9106      9109      9105      9103      9106      9107
      9105      9103      9106      9108      9105      9103      9106      9109
      9103      9106      9109      9110      9103      9106      9109      9111
      9103      9106      9109      9112      9107      9106      9109      9110
      9107      9106      9109      9111      9107      9106      9109      9112
      9108      9106      9109      9110      9108      9106      9109      9111
      9108      9106      9109      9112      9106      9109      9112      9113
      9106      9109      9112      9114      9106      9109      9112      9115
      9110      9109      9112      9113      9110      9109      9112      9114
      9110      9109      9112      9115      9111      9109      9112      9113
      9111      9109      9112      9114      9111      9109      9112      9115
      9109      9112      9115      9116      9109      9112      9115      9117
      9109      9112      9115      9118      9113      9112      9115      9116
      9113      9112      9115      9117      9113      9112      9115      9118
      9114      9112      9115      9116      9114      9112      9115      9117
      9114      9112      9115      9118      9112      9115      9118      9119
      9112      9115      9118      9120      9112      9115      9118      9121
      9116      9115      9118      9119      9116      9115      9118      9120
      9116      9115      9118      9121      9117      9115      9118      9119
      9117      9115      9118      9120      9117      9115      9118      9121
      9115      9118      9121      9122      9115      9118      9121      9123
      9115      9118      9121      9124      9119      9118      9121      9122
      9119      9118      9121      9123      9119      9118      9121      9124
      9120      9118      9121      9122      9120      9118      9121      9123
      9120      9118      9121      9124      9118      9121      9124      9125
      9118      9121      9124      9126      9118      9121      9124      9127
      9122      9121      9124      9125      9122      9121      9124      9126
      9122      9121      9124      9127      9123      9121      9124      9125
      9123      9121      9124      9126      9123      9121      9124      9127
      9121      9124      9127      9128      9121      9124      9127      9129
      9121      9124      9127      9130      9125      9124      9127      9128
      9125      9124      9127      9129      9125      9124      9127      9130
      9126      9124      9127      9128      9126      9124      9127      9129
      9126      9124      9127      9130      9124      9127      9130      9133
      9124      9127      9130      9131      9124      9127      9130      9132
      9128      9127      9130      9133      9128      9127      9130      9131
      9128      9127      9130      9132      9129      9127      9130      9133
      9129      9127      9130      9131      9129      9127      9130      9132
      9134      9133      9130      9127      9135      9133      9130      9127
      9134      9133      9130      9131      9135      9133      9130      9131
      9134      9133      9130      9132      9135      9133      9130      9132
      9130      9133      9135      9136      9134      9133      9135      9136
      9133      9135      9136      9137      9133      9135      9136      9138
      9133      9135      9136      9139      9135      9136      9139      9140
      9135      9136      9139      9141      9135      9136      9139      9168
      9137      9136      9139      9140      9137      9136      9139      9141
      9137      9136      9139      9168      9138      9136      9139      9140
      9138      9136      9139      9141      9138      9136      9139      9168
      9136      9139      9141      9142      9136      9139      9141      9143
      9136      9139      9141      9144      9136      9139      9168      9169
      9140      9139      9141      9142      9140      9139      9141      9143
      9140      9139      9141      9144      9140      9139      9168      9169
      9142      9141      9139      9168      9143      9141      9139      9168
      9144      9141      9139      9168      9141      9139      9168      9169
      9139      9141      9144      9145      9142      9141      9144      9145
      9143      9141      9144      9145      9141      9144      9145      9146
      9141      9144      9145      9166      9141      9144      9145      9167
      9144      9145      9146      9147      9147      9146      9145      9166
      9147      9146      9145      9167      9145      9146      9147      9148
      9145      9146      9147      9149      9145      9146      9147      9150
      9146      9147      9150      9151      9146      9147      9150      9152
      9146      9147      9150      9153      9148      9147      9150      9151
      9148      9147      9150      9152      9148      9147      9150      9153
      9149      9147      9150      9151      9149      9147      9150      9152
      9149      9147      9150      9153      9147      9150      9153      9154
      9147      9150      9153      9158      9147      9150      9153      9162
      9151      9150      9153      9154      9151      9150      9153      9158
      9151      9150      9153      9162      9152      9150      9153      9154
      9152      9150      9153      9158      9152      9150      9153      9162
      9150      9153      9154      9155      9150      9153      9154      9156
      9150      9153      9154      9157      9150      9153      9158      9159
      9150      9153      9158      9160      9150      9153      9158      9161
      9150      9153      9162      9163      9150      9153      9162      9164
      9150      9153      9162      9165      9155      9154      9153      9158
      9156      9154      9153      9158      9157      9154      9153      9158
      9154      9153      9158      9159      9154      9153      9158      9160
      9154      9153      9158      9161      9155      9154      9153      9162
      9156      9154      9153      9162      9157      9154      9153      9162
      9154      9153      9162      9163      9154      9153      9162      9164
      9154      9153      9162      9165      9159      9158      9153      9162
      9160      9158      9153      9162      9161      9158      9153      9162
      9158      9153      9162      9163      9158      9153      9162      9164
      9158      9153      9162      9165      9139      9168      9169      9171
      9139      9168      9169      9170      9172      9171      9169      9168
      9173      9171      9169      9168      9174      9171      9169      9168
      9172      9171      9169      9170      9173      9171      9169      9170
      9174      9171      9169      9170      9169      9171      9174      9175
      9169      9171      9174      9176      9169      9171      9174      9177
      9172      9171      9174      9175      9172      9171      9174      9176
      9172      9171      9174      9177      9173      9171      9174      9175
      9173      9171      9174      9176      9173      9171      9174      9177
      9171      9174      9177      9178      9171      9174      9177      9179
      9171      9174      9177      9180      9175      9174      9177      9178
      9175      9174      9177      9179      9175      9174      9177      9180
      9176      9174      9177      9178      9176      9174      9177      9179
      9176      9174      9177      9180      9174      9177      9180      9181
      9174      9177      9180      9182      9174      9177      9180      9183
      9178      9177      9180      9181      9178      9177      9180      9182
      9178      9177      9180      9183      9179      9177      9180      9181
      9179      9177      9180      9182      9179      9177      9180      9183
      9177      9180      9183      9184      9177      9180      9183      9185
      9177      9180      9183      9186      9181      9180      9183      9184
      9181      9180      9183      9185      9181      9180      9183      9186
      9182      9180      9183      9184      9182      9180      9183      9185
      9182      9180      9183      9186      9180      9183      9186      9187
      9180      9183      9186      9188      9180      9183      9186      9189
      9184      9183      9186      9187      9184      9183      9186      9188
      9184      9183      9186      9189      9185      9183      9186      9187
      9185      9183      9186      9188      9185      9183      9186      9189
      9183      9186      9189      9190      9183      9186      9189      9191
      9183      9186      9189      9192      9187      9186      9189      9190
      9187      9186      9189      9191      9187      9186      9189      9192
      9188      9186      9189      9190      9188      9186      9189      9191
      9188      9186      9189      9192      9186      9189      9192      9193
      9186      9189      9192      9194      9190      9189      9192      9193
      9190      9189      9192      9194      9191      9189      9192      9193
      9191      9189      9192      9194      9189      9192      9194      9195
      9189      9192      9194      9196      9193      9192      9194      9195
      9193      9192      9194      9196      9192      9194      9196      9197
      9192      9194      9196      9198      9192      9194      9196      9199
      9195      9194      9196      9197      9195      9194      9196      9198
      9195      9194      9196      9199      9194      9196      9199      9200
      9194      9196      9199      9201      9194      9196      9199      9202
      9197      9196      9199      9200      9197      9196      9199      9201
      9197      9196      9199      9202      9198      9196      9199      9200
      9198      9196      9199      9201      9198      9196      9199      9202
      9196      9199      9202      9203      9196      9199      9202      9204
      9196      9199      9202      9205      9200      9199      9202      9203
      9200      9199      9202      9204      9200      9199      9202      9205
      9201      9199      9202      9203      9201      9199      9202      9204
      9201      9199      9202      9205      9199      9202      9205      9206
      9199      9202      9205      9207      9199      9202      9205      9208
      9203      9202      9205      9206      9203      9202      9205      9207
      9203      9202      9205      9208      9204      9202      9205      9206
      9204      9202      9205      9207      9204      9202      9205      9208
      9202      9205      9208      9209      9202      9205      9208      9210
      9202      9205      9208      9211      9206      9205      9208      9209
      9206      9205      9208      9210      9206      9205      9208      9211
      9207      9205      9208      9209      9207      9205      9208      9210
      9207      9205      9208      9211      9205      9208      9211      9212
      9205      9208      9211      9213      9205      9208      9211      9214
      9209      9208      9211      9212      9209      9208      9211      9213
      9209      9208      9211      9214      9210      9208      9211      9212
      9210      9208      9211      9213      9210      9208      9211      9214
      9208      9211      9214      9215      9208      9211      9214      9216
      9208      9211      9214      9217      9212      9211      9214      9215
      9212      9211      9214      9216      9212      9211      9214      9217
      9213      9211      9214      9215      9213      9211      9214      9216
      9213      9211      9214      9217      9211      9214      9217      9218
      9211      9214      9217      9219      9211      9214      9217      9220
      9215      9214      9217      9218      9215      9214      9217      9219
      9215      9214      9217      9220      9216      9214      9217      9218
      9216      9214      9217      9219      9216      9214      9217      9220
      9222      9221      9225      9226      9222      9221      9225      9227
      9222      9221      9225      9228      9223      9221      9225      9226
      9223      9221      9225      9227      9223      9221      9225      9228
      9224      9221      9225      9226      9224      9221      9225      9227
      9224      9221      9225      9228      9221      9225      9228      9229
      9221      9225      9228      9230      9221      9225      9228      9231
      9226      9225      9228      9229      9226      9225      9228      9230
      9226      9225      9228      9231      9227      9225      9228      9229
      9227      9225      9228      9230      9227      9225      9228      9231
      9225      9228      9231      9232      9225      9228      9231      9233
      9225      9228      9231      9234      9229      9228      9231      9232
      9229      9228      9231      9233      9229      9228      9231      9234
      9230      9228      9231      9232      9230      9228      9231      9233
      9230      9228      9231      9234      9228      9231      9234      9235
      9228      9231      9234      9236      9228      9231      9234      9237
      9232      9231      9234      9235      9232      9231      9234      9236
      9232      9231      9234      9237      9233      9231      9234      9235
      9233      9231      9234      9236      9233      9231      9234      9237
      9231      9234      9237      9238      9231      9234      9237      9239
      9231      9234      9237      9240      9235      9234      9237      9238
      9235      9234      9237      9239      9235      9234      9237      9240
      9236      9234      9237      9238      9236      9234      9237      9239
      9236      9234      9237      9240      9234      9237      9240      9241
      9234      9237      9240      9242      9234      9237      9240      9243
      9238      9237      9240      9241      9238      9237      9240      9242
      9238      9237      9240      9243      9239      9237      9240      9241
      9239      9237      9240      9242      9239      9237      9240      9243
      9237      9240      9243      9244      9237      9240      9243      9245
      9237      9240      9243      9246      9241      9240      9243      9244
      9241      9240      9243      9245      9241      9240      9243      9246
      9242      9240      9243      9244      9242      9240      9243      9245
      9242      9240      9243      9246      9240      9243      9246      9247
      9240      9243      9246      9248      9240      9243      9246      9249
      9244      9243      9246      9247      9244      9243      9246      9248
      9244      9243      9246      9249      9245      9243      9246      9247
      9245      9243      9246      9248      9245      9243      9246      9249
      9243      9246      9249      9250      9243      9246      9249      9251
      9243      9246      9249      9252      9247      9246      9249      9250
      9247      9246      9249      9251      9247      9246      9249      9252
      9248      9246      9249      9250      9248      9246      9249      9251
      9248      9246      9249      9252      9246      9249      9252      9253
      9246      9249      9252      9254      9246      9249      9252      9255
      9250      9249      9252      9253      9250      9249      9252      9254
      9250      9249      9252      9255      9251      9249      9252      9253
      9251      9249      9252      9254      9251      9249      9252      9255
      9249      9252      9255      9256      9249      9252      9255      9257
      9249      9252      9255      9258      9253      9252      9255      9256
      9253      9252      9255      9257      9253      9252      9255      9258
      9254      9252      9255      9256      9254      9252      9255      9257
      9254      9252      9255      9258      9252      9255      9258      9259
      9252      9255      9258      9260      9252      9255      9258      9261
      9256      9255      9258      9259      9256      9255      9258      9260
      9256      9255      9258      9261      9257      9255      9258      9259
      9257      9255      9258      9260      9257      9255      9258      9261
      9255      9258      9261      9262      9255      9258      9261      9263
      9255      9258      9261      9264      9259      9258      9261      9262
      9259      9258      9261      9263      9259      9258      9261      9264
      9260      9258      9261      9262      9260      9258      9261      9263
      9260      9258      9261      9264      9258      9261      9264      9267
      9258      9261      9264      9265      9258      9261      9264      9266
      9262      9261      9264      9267      9262      9261      9264      9265
      9262      9261      9264      9266      9263      9261      9264      9267
      9263      9261      9264      9265      9263      9261      9264      9266
      9268      9267      9264      9261      9269      9267      9264      9261
      9268      9267      9264      9265      9269      9267      9264      9265
      9268      9267      9264      9266      9269      9267      9264      9266
      9264      9267      9269      9270      9268      9267      9269      9270
      9267      9269      9270      9271      9267      9269      9270      9272
      9267      9269      9270      9273      9269      9270      9273      9274
      9269      9270      9273      9275      9269      9270      9273      9302
      9271      9270      9273      9274      9271      9270      9273      9275
      9271      9270      9273      9302      9272      9270      9273      9274
      9272      9270      9273      9275      9272      9270      9273      9302
      9270      9273      9275      9276      9270      9273      9275      9277
      9270      9273      9275      9278      9270      9273      9302      9303
      9274      9273      9275      9276      9274      9273      9275      9277
      9274      9273      9275      9278      9274      9273      9302      9303
      9276      9275      9273      9302      9277      9275      9273      9302
      9278      9275      9273      9302      9275      9273      9302      9303
      9273      9275      9278      9279      9276      9275      9278      9279
      9277      9275      9278      9279      9275      9278      9279      9280
      9275      9278      9279      9300      9275      9278      9279      9301
      9278      9279      9280      9281      9281      9280      9279      9300
      9281      9280      9279      9301      9279      9280      9281      9282
      9279      9280      9281      9283      9279      9280      9281      9284
      9280      9281      9284      9285      9280      9281      9284      9286
      9280      9281      9284      9287      9282      9281      9284      9285
      9282      9281      9284      9286      9282      9281      9284      9287
      9283      9281      9284      9285      9283      9281      9284      9286
      9283      9281      9284      9287      9281      9284      9287      9288
      9281      9284      9287      9292      9281      9284      9287      9296
      9285      9284      9287      9288      9285      9284      9287      9292
      9285      9284      9287      9296      9286      9284      9287      9288
      9286      9284      9287      9292      9286      9284      9287      9296
      9284      9287      9288      9289      9284      9287      9288      9290
      9284      9287      9288      9291      9284      9287      9292      9293
      9284      9287      9292      9294      9284      9287      9292      9295
      9284      9287      9296      9297      9284      9287      9296      9298
      9284      9287      9296      9299      9289      9288      9287      9292
      9290      9288      9287      9292      9291      9288      9287      9292
      9288      9287      9292      9293      9288      9287      9292      9294
      9288      9287      9292      9295      9289      9288      9287      9296
      9290      9288      9287      9296      9291      9288      9287      9296
      9288      9287      9296      9297      9288      9287      9296      9298
      9288      9287      9296      9299      9293      9292      9287      9296
      9294      9292      9287      9296      9295      9292      9287      9296
      9292      9287      9296      9297      9292      9287      9296      9298
      9292      9287      9296      9299      9273      9302      9303      9305
      9273      9302      9303      9304      9306      9305      9303      9302
      9307      9305      9303      9302      9308      9305      9303      9302
      9306      9305      9303      9304      9307      9305      9303      9304
      9308      9305      9303      9304      9303      9305      9308      9309
      9303      9305      9308      9310      9303      9305      9308      9311
      9306      9305      9308      9309      9306      9305      9308      9310
      9306      9305      9308      9311      9307      9305      9308      9309
      9307      9305      9308      9310      9307      9305      9308      9311
      9305      9308      9311      9312      9305      9308      9311      9313
      9305      9308      9311      9314      9309      9308      9311      9312
      9309      9308      9311      9313      9309      9308      9311      9314
      9310      9308      9311      9312      9310      9308      9311      9313
      9310      9308      9311      9314      9308      9311      9314      9315
      9308      9311      9314      9316      9308      9311      9314      9317
      9312      9311      9314      9315      9312      9311      9314      9316
      9312      9311      9314      9317      9313      9311      9314      9315
      9313      9311      9314      9316      9313      9311      9314      9317
      9311      9314      9317      9318      9311      9314      9317      9319
      9311      9314      9317      9320      9315      9314      9317      9318
      9315      9314      9317      9319      9315      9314      9317      9320
      9316      9314      9317      9318      9316      9314      9317      9319
      9316      9314      9317      9320      9314      9317      9320      9321
      9314      9317      9320      9322      9314      9317      9320      9323
      9318      9317      9320      9321      9318      9317      9320      9322
      9318      9317      9320      9323      9319      9317      9320      9321
      9319      9317      9320      9322      9319      9317      9320      9323
      9317      9320      9323      9324      9317      9320      9323      9325
      9317      9320      9323      9326      9321      9320      9323      9324
      9321      9320      9323      9325      9321      9320      9323      9326
      9322      9320      9323      9324      9322      9320      9323      9325
      9322      9320      9323      9326      9320      9323      9326      9327
      9320      9323      9326      9328      9324      9323      9326      9327
      9324      9323      9326      9328      9325      9323      9326      9327
      9325      9323      9326      9328      9323      9326      9328      9329
      9323      9326      9328      9330      9327      9326      9328      9329
      9327      9326      9328      9330      9326      9328      9330      9331
      9326      9328      9330      9332      9326      9328      9330      9333
      9329      9328      9330      9331      9329      9328      9330      9332
      9329      9328      9330      9333      9328      9330      9333      9334
      9328      9330      9333      9335      9328      9330      9333      9336
      9331      9330      9333      9334      9331      9330      9333      9335
      9331      9330      9333      9336      9332      9330      9333      9334
      9332      9330      9333      9335      9332      9330      9333      9336
      9330      9333      9336      9337      9330      9333      9336      9338
      9330      9333      9336      9339      9334      9333      9336      9337
      9334      9333      9336      9338      9334      9333      9336      9339
      9335      9333      9336      9337      9335      9333      9336      9338
      9335      9333      9336      9339      9333      9336      9339      9340
      9333      9336      9339      9341      9333      9336      9339      9342
      9337      9336      9339      9340      9337      9336      9339      9341
      9337      9336      9339      9342      9338      9336      9339      9340
      9338      9336      9339      9341      9338      9336      9339      9342
      9336      9339      9342      9343      9336      9339      9342      9344
      9336      9339      9342      9345      9340      9339      9342      9343
      9340      9339      9342      9344      9340      9339      9342      9345
      9341      9339      9342      9343      9341      9339      9342      9344
      9341      9339      9342      9345      9339      9342      9345      9346
      9339      9342      9345      9347      9339      9342      9345      9348
      9343      9342      9345      9346      9343      9342      9345      9347
      9343      9342      9345      9348      9344      9342      9345      9346
      9344      9342      9345      9347      9344      9342      9345      9348
      9342      9345      9348      9349      9342      9345      9348      9350
      9342      9345      9348      9351      9346      9345      9348      9349
      9346      9345      9348      9350      9346      9345      9348      9351
      9347      9345      9348      9349      9347      9345      9348      9350
      9347      9345      9348      9351      9345      9348      9351      9352
      9345      9348      9351      9353      9345      9348      9351      9354
      9349      9348      9351      9352      9349      9348      9351      9353
      9349      9348      9351      9354      9350      9348      9351      9352
      9350      9348      9351      9353      9350      9348      9351      9354
      9356      9355      9359      9360      9356      9355      9359      9361
      9356      9355      9359      9362      9357      9355      9359      9360
      9357      9355      9359      9361      9357      9355      9359      9362
      9358      9355      9359      9360      9358      9355      9359      9361
      9358      9355      9359      9362      9355      9359      9362      9363
      9355      9359      9362      9364      9355      9359      9362      9365
      9360      9359      9362      9363      9360      9359      9362      9364
      9360      9359      9362      9365      9361      9359      9362      9363
      9361      9359      9362      9364      9361      9359      9362      9365
      9359      9362      9365      9366      9359      9362      9365      9367
      9359      9362      9365      9368      9363      9362      9365      9366
      9363      9362      9365      9367      9363      9362      9365      9368
      9364      9362      9365      9366      9364      9362      9365      9367
      9364      9362      9365      9368      9362      9365      9368      9369
      9362      9365      9368      9370      9362      9365      9368      9371
      9366      9365      9368      9369      9366      9365      9368      9370
      9366      9365      9368      9371      9367      9365      9368      9369
      9367      9365      9368      9370      9367      9365      9368      9371
      9365      9368      9371      9372      9365      9368      9371      9373
      9365      9368      9371      9374      9369      9368      9371      9372
      9369      9368      9371      9373      9369      9368      9371      9374
      9370      9368      9371      9372      9370      9368      9371      9373
      9370      9368      9371      9374      9368      9371      9374      9375
      9368      9371      9374      9376      9368      9371      9374      9377
      9372      9371      9374      9375      9372      9371      9374      9376
      9372      9371      9374      9377      9373      9371      9374      9375
      9373      9371      9374      9376      9373      9371      9374      9377
      9371      9374      9377      9378      9371      9374      9377      9379
      9371      9374      9377      9380      9375      9374      9377      9378
      9375      9374      9377      9379      9375      9374      9377      9380
      9376      9374      9377      9378      9376      9374      9377      9379
      9376      9374      9377      9380      9374      9377      9380      9381
      9374      9377      9380      9382      9374      9377      9380      9383
      9378      9377      9380      9381      9378      9377      9380      9382
      9378      9377      9380      9383      9379      9377      9380      9381
      9379      9377      9380      9382      9379      9377      9380      9383
      9377      9380      9383      9384      9377      9380      9383      9385
      9377      9380      9383      9386      9381      9380      9383      9384
      9381      9380      9383      9385      9381      9380      9383      9386
      9382      9380      9383      9384      9382      9380      9383      9385
      9382      9380      9383      9386      9380      9383      9386      9387
      9380      9383      9386      9388      9380      9383      9386      9389
      9384      9383      9386      9387      9384      9383      9386      9388
      9384      9383      9386      9389      9385      9383      9386      9387
      9385      9383      9386      9388      9385      9383      9386      9389
      9383      9386      9389      9390      9383      9386      9389      9391
      9383      9386      9389      9392      9387      9386      9389      9390
      9387      9386      9389      9391      9387      9386      9389      9392
      9388      9386      9389      9390      9388      9386      9389      9391
      9388      9386      9389      9392      9386      9389      9392      9393
      9386      9389      9392      9394      9386      9389      9392      9395
      9390      9389      9392      9393      9390      9389      9392      9394
      9390      9389      9392      9395      9391      9389      9392      9393
      9391      9389      9392      9394      9391      9389      9392      9395
      9389      9392      9395      9396      9389      9392      9395      9397
      9389      9392      9395      9398      9393      9392      9395      9396
      9393      9392      9395      9397      9393      9392      9395      9398
      9394      9392      9395      9396      9394      9392      9395      9397
      9394      9392      9395      9398      9392      9395      9398      9401
      9392      9395      9398      9399      9392      9395      9398      9400
      9396      9395      9398      9401      9396      9395      9398      9399
      9396      9395      9398      9400      9397      9395      9398      9401
      9397      9395      9398      9399      9397      9395      9398      9400
      9402      9401      9398      9395      9403      9401      9398      9395
      9402      9401      9398      9399      9403      9401      9398      9399
      9402      9401      9398      9400      9403      9401      9398      9400
      9398      9401      9403      9404      9402      9401      9403      9404
      9401      9403      9404      9405      9401      9403      9404      9406
      9401      9403      9404      9407      9403      9404      9407      9408
      9403      9404      9407      9409      9403      9404      9407      9436
      9405      9404      9407      9408      9405      9404      9407      9409
      9405      9404      9407      9436      9406      9404      9407      9408
      9406      9404      9407      9409      9406      9404      9407      9436
      9404      9407      9409      9410      9404      9407      9409      9411
      9404      9407      9409      9412      9404      9407      9436      9437
      9408      9407      9409      9410      9408      9407      9409      9411
      9408      9407      9409      9412      9408      9407      9436      9437
      9410      9409      9407      9436      9411      9409      9407      9436
      9412      9409      9407      9436      9409      9407      9436      9437
      9407      9409      9412      9413      9410      9409      9412      9413
      9411      9409      9412      9413      9409      9412      9413      9414
      9409      9412      9413      9434      9409      9412      9413      9435
      9412      9413      9414      9415      9415      9414      9413      9434
      9415      9414      9413      9435      9413      9414      9415      9416
      9413      9414      9415      9417      9413      9414      9415      9418
      9414      9415      9418      9419      9414      9415      9418      9420
      9414      9415      9418      9421      9416      9415      9418      9419
      9416      9415      9418      9420      9416      9415      9418      9421
      9417      9415      9418      9419      9417      9415      9418      9420
      9417      9415      9418      9421      9415      9418      9421      9422
      9415      9418      9421      9426      9415      9418      9421      9430
      9419      9418      9421      9422      9419      9418      9421      9426
      9419      9418      9421      9430      9420      9418      9421      9422
      9420      9418      9421      9426      9420      9418      9421      9430
      9418      9421      9422      9423      9418      9421      9422      9424
      9418      9421      9422      9425      9418      9421      9426      9427
      9418      9421      9426      9428      9418      9421      9426      9429
      9418      9421      9430      9431      9418      9421      9430      9432
      9418      9421      9430      9433      9423      9422      9421      9426
      9424      9422      9421      9426      9425      9422      9421      9426
      9422      9421      9426      9427      9422      9421      9426      9428
      9422      9421      9426      9429      9423      9422      9421      9430
      9424      9422      9421      9430      9425      9422      9421      9430
      9422      9421      9430      9431      9422      9421      9430      9432
      9422      9421      9430      9433      9427      9426      9421      9430
      9428      9426      9421      9430      9429      9426      9421      9430
      9426      9421      9430      9431      9426      9421      9430      9432
      9426      9421      9430      9433      9407      9436      9437      9439
      9407      9436      9437      9438      9440      9439      9437      9436
      9441      9439      9437      9436      9442      9439      9437      9436
      9440      9439      9437      9438      9441      9439      9437      9438
      9442      9439      9437      9438      9437      9439      9442      9443
      9437      9439      9442      9444      9437      9439      9442      9445
      9440      9439      9442      9443      9440      9439      9442      9444
      9440      9439      9442      9445      9441      9439      9442      9443
      9441      9439      9442      9444      9441      9439      9442      9445
      9439      9442      9445      9446      9439      9442      9445      9447
      9439      9442      9445      9448      9443      9442      9445      9446
      9443      9442      9445      9447      9443      9442      9445      9448
      9444      9442      9445      9446      9444      9442      9445      9447
      9444      9442      9445      9448      9442      9445      9448      9449
      9442      9445      9448      9450      9442      9445      9448      9451
      9446      9445      9448      9449      9446      9445      9448      9450
      9446      9445      9448      9451      9447      9445      9448      9449
      9447      9445      9448      9450      9447      9445      9448      9451
      9445      9448      9451      9452      9445      9448      9451      9453
      9445      9448      9451      9454      9449      9448      9451      9452
      9449      9448      9451      9453      9449      9448      9451      9454
      9450      9448      9451      9452      9450      9448      9451      9453
      9450      9448      9451      9454      9448      9451      9454      9455
      9448      9451      9454      9456      9448      9451      9454      9457
      9452      9451      9454      9455      9452      9451      9454      9456
      9452      9451      9454      9457      9453      9451      9454      9455
      9453      9451      9454      9456      9453      9451      9454      9457
      9451      9454      9457      9458      9451      9454      9457      9459
      9451      9454      9457      9460      9455      9454      9457      9458
      9455      9454      9457      9459      9455      9454      9457      9460
      9456      9454      9457      9458      9456      9454      9457      9459
      9456      9454      9457      9460      9454      9457      9460      9461
      9454      9457      9460      9462      9458      9457      9460      9461
      9458      9457      9460      9462      9459      9457      9460      9461
      9459      9457      9460      9462      9457      9460      9462      9463
      9457      9460      9462      9464      9461      9460      9462      9463
      9461      9460      9462      9464      9460      9462      9464      9465
      9460      9462      9464      9466      9460      9462      9464      9467
      9463      9462      9464      9465      9463      9462      9464      9466
      9463      9462      9464      9467      9462      9464      9467      9468
      9462      9464      9467      9469      9462      9464      9467      9470
      9465      9464      9467      9468      9465      9464      9467      9469
      9465      9464      9467      9470      9466      9464      9467      9468
      9466      9464      9467      9469      9466      9464      9467      9470
      9464      9467      9470      9471      9464      9467      9470      9472
      9464      9467      9470      9473      9468      9467      9470      9471
      9468      9467      9470      9472      9468      9467      9470      9473
      9469      9467      9470      9471      9469      9467      9470      9472
      9469      9467      9470      9473      9467      9470      9473      9474
      9467      9470      9473      9475      9467      9470      9473      9476
      9471      9470      9473      9474      9471      9470      9473      9475
      9471      9470      9473      9476      9472      9470      9473      9474
      9472      9470      9473      9475      9472      9470      9473      9476
      9470      9473      9476      9477      9470      9473      9476      9478
      9470      9473      9476      9479      9474      9473      9476      9477
      9474      9473      9476      9478      9474      9473      9476      9479
      9475      9473      9476      9477      9475      9473      9476      9478
      9475      9473      9476      9479      9473      9476      9479      9480
      9473      9476      9479      9481      9473      9476      9479      9482
      9477      9476      9479      9480      9477      9476      9479      9481
      9477      9476      9479      9482      9478      9476      9479      9480
      9478      9476      9479      9481      9478      9476      9479      9482
      9476      9479      9482      9483      9476      9479      9482      9484
      9476      9479      9482      9485      9480      9479      9482      9483
      9480      9479      9482      9484      9480      9479      9482      9485
      9481      9479      9482      9483      9481      9479      9482      9484
      9481      9479      9482      9485      9479      9482      9485      9486
      9479      9482      9485      9487      9479      9482      9485      9488
      9483      9482      9485      9486      9483      9482      9485      9487
      9483      9482      9485      9488      9484      9482      9485      9486
      9484      9482      9485      9487      9484      9482      9485      9488
      9490      9489      9493      9494      9490      9489      9493      9495
      9490      9489      9493      9496      9491      9489      9493      9494
      9491      9489      9493      9495      9491      9489      9493      9496
      9492      9489      9493      9494      9492      9489      9493      9495
      9492      9489      9493      9496      9489      9493      9496      9497
      9489      9493      9496      9498      9489      9493      9496      9499
      9494      9493      9496      9497      9494      9493      9496      9498
      9494      9493      9496      9499      9495      9493      9496      9497
      9495      9493      9496      9498      9495      9493      9496      9499
      9493      9496      9499      9500      9493      9496      9499      9501
      9493      9496      9499      9502      9497      9496      9499      9500
      9497      9496      9499      9501      9497      9496      9499      9502
      9498      9496      9499      9500      9498      9496      9499      9501
      9498      9496      9499      9502      9496      9499      9502      9503
      9496      9499      9502      9504      9496      9499      9502      9505
      9500      9499      9502      9503      9500      9499      9502      9504
      9500      9499      9502      9505      9501      9499      9502      9503
      9501      9499      9502      9504      9501      9499      9502      9505
      9499      9502      9505      9506      9499      9502      9505      9507
      9499      9502      9505      9508      9503      9502      9505      9506
      9503      9502      9505      9507      9503      9502      9505      9508
      9504      9502      9505      9506      9504      9502      9505      9507
      9504      9502      9505      9508      9502      9505      9508      9509
      9502      9505      9508      9510      9502      9505      9508      9511
      9506      9505      9508      9509      9506      9505      9508      9510
      9506      9505      9508      9511      9507      9505      9508      9509
      9507      9505      9508      9510      9507      9505      9508      9511
      9505      9508      9511      9512      9505      9508      9511      9513
      9505      9508      9511      9514      9509      9508      9511      9512
      9509      9508      9511      9513      9509      9508      9511      9514
      9510      9508      9511      9512      9510      9508      9511      9513
      9510      9508      9511      9514      9508      9511      9514      9515
      9508      9511      9514      9516      9508      9511      9514      9517
      9512      9511      9514      9515      9512      9511      9514      9516
      9512      9511      9514      9517      9513      9511      9514      9515
      9513      9511      9514      9516      9513      9511      9514      9517
      9511      9514      9517      9518      9511      9514      9517      9519
      9511      9514      9517      9520      9515      9514      9517      9518
      9515      9514      9517      9519      9515      9514      9517      9520
      9516      9514      9517      9518      9516      9514      9517      9519
      9516      9514      9517      9520      9514      9517      9520      9521
      9514      9517      9520      9522      9514      9517      9520      9523
      9518      9517      9520      9521      9518      9517      9520      9522
      9518      9517      9520      9523      9519      9517      9520      9521
      9519      9517      9520      9522      9519      9517      9520      9523
      9517      9520      9523      9524      9517      9520      9523      9525
      9517      9520      9523      9526      9521      9520      9523      9524
      9521      9520      9523      9525      9521      9520      9523      9526
      9522      9520      9523      9524      9522      9520      9523      9525
      9522      9520      9523      9526      9520      9523      9526      9527
      9520      9523      9526      9528      9520      9523      9526      9529
      9524      9523      9526      9527      9524      9523      9526      9528
      9524      9523      9526      9529      9525      9523      9526      9527
      9525      9523      9526      9528      9525      9523      9526      9529
      9523      9526      9529      9530      9523      9526      9529      9531
      9523      9526      9529      9532      9527      9526      9529      9530
      9527      9526      9529      9531      9527      9526      9529      9532
      9528      9526      9529      9530      9528      9526      9529      9531
      9528      9526      9529      9532      9526      9529      9532      9535
      9526      9529      9532      9533      9526      9529      9532      9534
      9530      9529      9532      9535      9530      9529      9532      9533
      9530      9529      9532      9534      9531      9529      9532      9535
      9531      9529      9532      9533      9531      9529      9532      9534
      9536      9535      9532      9529      9537      9535      9532      9529
      9536      9535      9532      9533      9537      9535      9532      9533
      9536      9535      9532      9534      9537      9535      9532      9534
      9532      9535      9537      9538      9536      9535      9537      9538
      9535      9537      9538      9539      9535      9537      9538      9540
      9535      9537      9538      9541      9537      9538      9541      9542
      9537      9538      9541      9543      9537      9538      9541      9570
      9539      9538      9541      9542      9539      9538      9541      9543
      9539      9538      9541      9570      9540      9538      9541      9542
      9540      9538      9541      9543      9540      9538      9541      9570
      9538      9541      9543      9544      9538      9541      9543      9545
      9538      9541      9543      9546      9538      9541      9570      9571
      9542      9541      9543      9544      9542      9541      9543      9545
      9542      9541      9543      9546      9542      9541      9570      9571
      9544      9543      9541      9570      9545      9543      9541      9570
      9546      9543      9541      9570      9543      9541      9570      9571
      9541      9543      9546      9547      9544      9543      9546      9547
      9545      9543      9546      9547      9543      9546      9547      9548
      9543      9546      9547      9568      9543      9546      9547      9569
      9546      9547      9548      9549      9549      9548      9547      9568
      9549      9548      9547      9569      9547      9548      9549      9550
      9547      9548      9549      9551      9547      9548      9549      9552
      9548      9549      9552      9553      9548      9549      9552      9554
      9548      9549      9552      9555      9550      9549      9552      9553
      9550      9549      9552      9554      9550      9549      9552      9555
      9551      9549      9552      9553      9551      9549      9552      9554
      9551      9549      9552      9555      9549      9552      9555      9556
      9549      9552      9555      9560      9549      9552      9555      9564
      9553      9552      9555      9556      9553      9552      9555      9560
      9553      9552      9555      9564      9554      9552      9555      9556
      9554      9552      9555      9560      9554      9552      9555      9564
      9552      9555      9556      9557      9552      9555      9556      9558
      9552      9555      9556      9559      9552      9555      9560      9561
      9552      9555      9560      9562      9552      9555      9560      9563
      9552      9555      9564      9565      9552      9555      9564      9566
      9552      9555      9564      9567      9557      9556      9555      9560
      9558      9556      9555      9560      9559      9556      9555      9560
      9556      9555      9560      9561      9556      9555      9560      9562
      9556      9555      9560      9563      9557      9556      9555      9564
      9558      9556      9555      9564      9559      9556      9555      9564
      9556      9555      9564      9565      9556      9555      9564      9566
      9556      9555      9564      9567      9561      9560      9555      9564
      9562      9560      9555      9564      9563      9560      9555      9564
      9560      9555      9564      9565      9560      9555      9564      9566
      9560      9555      9564      9567      9541      9570      9571      9573
      9541      9570      9571      9572      9574      9573      9571      9570
      9575      9573      9571      9570      9576      9573      9571      9570
      9574      9573      9571      9572      9575      9573      9571      9572
      9576      9573      9571      9572      9571      9573      9576      9577
      9571      9573      9576      9578      9571      9573      9576      9579
      9574      9573      9576      9577      9574      9573      9576      9578
      9574      9573      9576      9579      9575      9573      9576      9577
      9575      9573      9576      9578      9575      9573      9576      9579
      9573      9576      9579      9580      9573      9576      9579      9581
      9573      9576      9579      9582      9577      9576      9579      9580
      9577      9576      9579      9581      9577      9576      9579      9582
      9578      9576      9579      9580      9578      9576      9579      9581
      9578      9576      9579      9582      9576      9579      9582      9583
      9576      9579      9582      9584      9576      9579      9582      9585
      9580      9579      9582      9583      9580      9579      9582      9584
      9580      9579      9582      9585      9581      9579      9582      9583
      9581      9579      9582      9584      9581      9579      9582      9585
      9579      9582      9585      9586      9579      9582      9585      9587
      9579      9582      9585      9588      9583      9582      9585      9586
      9583      9582      9585      9587      9583      9582      9585      9588
      9584      9582      9585      9586      9584      9582      9585      9587
      9584      9582      9585      9588      9582      9585      9588      9589
      9582      9585      9588      9590      9582      9585      9588      9591
      9586      9585      9588      9589      9586      9585      9588      9590
      9586      9585      9588      9591      9587      9585      9588      9589
      9587      9585      9588      9590      9587      9585      9588      9591
      9585      9588      9591      9592      9585      9588      9591      9593
      9585      9588      9591      9594      9589      9588      9591      9592
      9589      9588      9591      9593      9589      9588      9591      9594
      9590      9588      9591      9592      9590      9588      9591      9593
      9590      9588      9591      9594      9588      9591      9594      9595
      9588      9591      9594      9596      9592      9591      9594      9595
      9592      9591      9594      9596      9593      9591      9594      9595
      9593      9591      9594      9596      9591      9594      9596      9597
      9591      9594      9596      9598      9595      9594      9596      9597
      9595      9594      9596      9598      9594      9596      9598      9599
      9594      9596      9598      9600      9594      9596      9598      9601
      9597      9596      9598      9599      9597      9596      9598      9600
      9597      9596      9598      9601      9596      9598      9601      9602
      9596      9598      9601      9603      9596      9598      9601      9604
      9599      9598      9601      9602      9599      9598      9601      9603
      9599      9598      9601      9604      9600      9598      9601      9602
      9600      9598      9601      9603      9600      9598      9601      9604
      9598      9601      9604      9605      9598      9601      9604      9606
      9598      9601      9604      9607      9602      9601      9604      9605
      9602      9601      9604      9606      9602      9601      9604      9607
      9603      9601      9604      9605      9603      9601      9604      9606
      9603      9601      9604      9607      9601      9604      9607      9608
      9601      9604      9607      9609      9601      9604      9607      9610
      9605      9604      9607      9608      9605      9604      9607      9609
      9605      9604      9607      9610      9606      9604      9607      9608
      9606      9604      9607      9609      9606      9604      9607      9610
      9604      9607      9610      9611      9604      9607      9610      9612
      9604      9607      9610      9613      9608      9607      9610      9611
      9608      9607      9610      9612      9608      9607      9610      9613
      9609      9607      9610      9611      9609      9607      9610      9612
      9609      9607      9610      9613      9607      9610      9613      9614
      9607      9610      9613      9615      9607      9610      9613      9616
      9611      9610      9613      9614      9611      9610      9613      9615
      9611      9610      9613      9616      9612      9610      9613      9614
      9612      9610      9613      9615      9612      9610      9613      9616
      9610      9613      9616      9617      9610      9613      9616      9618
      9610      9613      9616      9619      9614      9613      9616      9617
      9614      9613      9616      9618      9614      9613      9616      9619
      9615      9613      9616      9617      9615      9613      9616      9618
      9615      9613      9616      9619      9613      9616      9619      9620
      9613      9616      9619      9621      9613      9616      9619      9622
      9617      9616      9619      9620      9617      9616      9619      9621
      9617      9616      9619      9622      9618      9616      9619      9620
      9618      9616      9619      9621      9618      9616      9619      9622
      9624      9623      9627      9628      9624      9623      9627      9629
      9624      9623      9627      9630      9625      9623      9627      9628
      9625      9623      9627      9629      9625      9623      9627      9630
      9626      9623      9627      9628      9626      9623      9627      9629
      9626      9623      9627      9630      9623      9627      9630      9631
      9623      9627      9630      9632      9623      9627      9630      9633
      9628      9627      9630      9631      9628      9627      9630      9632
      9628      9627      9630      9633      9629      9627      9630      9631
      9629      9627      9630      9632      9629      9627      9630      9633
      9627      9630      9633      9634      9627      9630      9633      9635
      9627      9630      9633      9636      9631      9630      9633      9634
      9631      9630      9633      9635      9631      9630      9633      9636
      9632      9630      9633      9634      9632      9630      9633      9635
      9632      9630      9633      9636      9630      9633      9636      9637
      9630      9633      9636      9638      9630      9633      9636      9639
      9634      9633      9636      9637      9634      9633      9636      9638
      9634      9633      9636      9639      9635      9633      9636      9637
      9635      9633      9636      9638      9635      9633      9636      9639
      9633      9636      9639      9640      9633      9636      9639      9641
      9633      9636      9639      9642      9637      9636      9639      9640
      9637      9636      9639      9641      9637      9636      9639      9642
      9638      9636      9639      9640      9638      9636      9639      9641
      9638      9636      9639      9642      9636      9639      9642      9643
      9636      9639      9642      9644      9636      9639      9642      9645
      9640      9639      9642      9643      9640      9639      9642      9644
      9640      9639      9642      9645      9641      9639      9642      9643
      9641      9639      9642      9644      9641      9639      9642      9645
      9639      9642      9645      9646      9639      9642      9645      9647
      9639      9642      9645      9648      9643      9642      9645      9646
      9643      9642      9645      9647      9643      9642      9645      9648
      9644      9642      9645      9646      9644      9642      9645      9647
      9644      9642      9645      9648      9642      9645      9648      9649
      9642      9645      9648      9650      9642      9645      9648      9651
      9646      9645      9648      9649      9646      9645      9648      9650
      9646      9645      9648      9651      9647      9645      9648      9649
      9647      9645      9648      9650      9647      9645      9648      9651
      9645      9648      9651      9652      9645      9648      9651      9653
      9645      9648      9651      9654      9649      9648      9651      9652
      9649      9648      9651      9653      9649      9648      9651      9654
      9650      9648      9651      9652      9650      9648      9651      9653
      9650      9648      9651      9654      9648      9651      9654      9655
      9648      9651      9654      9656      9648      9651      9654      9657
      9652      9651      9654      9655      9652      9651      9654      9656
      9652      9651      9654      9657      9653      9651      9654      9655
      9653      9651      9654      9656      9653      9651      9654      9657
      9651      9654      9657      9658      9651      9654      9657      9659
      9651      9654      9657      9660      9655      9654      9657      9658
      9655      9654      9657      9659      9655      9654      9657      9660
      9656      9654      9657      9658      9656      9654      9657      9659
      9656      9654      9657      9660      9654      9657      9660      9661
      9654      9657      9660      9662      9654      9657      9660      9663
      9658      9657      9660      9661      9658      9657      9660      9662
      9658      9657      9660      9663      9659      9657      9660      9661
      9659      9657      9660      9662      9659      9657      9660      9663
      9657      9660      9663      9664      9657      9660      9663      9665
      9657      9660      9663      9666      9661      9660      9663      9664
      9661      9660      9663      9665      9661      9660      9663      9666
      9662      9660      9663      9664      9662      9660      9663      9665
      9662      9660      9663      9666      9660      9663      9666      9669
      9660      9663      9666      9667      9660      9663      9666      9668
      9664      9663      9666      9669      9664      9663      9666      9667
      9664      9663      9666      9668      9665      9663      9666      9669
      9665      9663      9666      9667      9665      9663      9666      9668
      9670      9669      9666      9663      9671      9669      9666      9663
      9670      9669      9666      9667      9671      9669      9666      9667
      9670      9669      9666      9668      9671      9669      9666      9668
      9666      9669      9671      9672      9670      9669      9671      9672
      9669      9671      9672      9673      9669      9671      9672      9674
      9669      9671      9672      9675      9671      9672      9675      9676
      9671      9672      9675      9677      9671      9672      9675      9704
      9673      9672      9675      9676      9673      9672      9675      9677
      9673      9672      9675      9704      9674      9672      9675      9676
      9674      9672      9675      9677      9674      9672      9675      9704
      9672      9675      9677      9678      9672      9675      9677      9679
      9672      9675      9677      9680      9672      9675      9704      9705
      9676      9675      9677      9678      9676      9675      9677      9679
      9676      9675      9677      9680      9676      9675      9704      9705
      9678      9677      9675      9704      9679      9677      9675      9704
      9680      9677      9675      9704      9677      9675      9704      9705
      9675      9677      9680      9681      9678      9677      9680      9681
      9679      9677      9680      9681      9677      9680      9681      9682
      9677      9680      9681      9702      9677      9680      9681      9703
      9680      9681      9682      9683      9683      9682      9681      9702
      9683      9682      9681      9703      9681      9682      9683      9684
      9681      9682      9683      9685      9681      9682      9683      9686
      9682      9683      9686      9687      9682      9683      9686      9688
      9682      9683      9686      9689      9684      9683      9686      9687
      9684      9683      9686      9688      9684      9683      9686      9689
      9685      9683      9686      9687      9685      9683      9686      9688
      9685      9683      9686      9689      9683      9686      9689      9690
      9683      9686      9689      9694      9683      9686      9689      9698
      9687      9686      9689      9690      9687      9686      9689      9694
      9687      9686      9689      9698      9688      9686      9689      9690
      9688      9686      9689      9694      9688      9686      9689      9698
      9686      9689      9690      9691      9686      9689      9690      9692
      9686      9689      9690      9693      9686      9689      9694      9695
      9686      9689      9694      9696      9686      9689      9694      9697
      9686      9689      9698      9699      9686      9689      9698      9700
      9686      9689      9698      9701      9691      9690      9689      9694
      9692      9690      9689      9694      9693      9690      9689      9694
      9690      9689      9694      9695      9690      9689      9694      9696
      9690      9689      9694      9697      9691      9690      9689      9698
      9692      9690      9689      9698      9693      9690      9689      9698
      9690      9689      9698      9699      9690      9689      9698      9700
      9690      9689      9698      9701      9695      9694      9689      9698
      9696      9694      9689      9698      9697      9694      9689      9698
      9694      9689      9698      9699      9694      9689      9698      9700
      9694      9689      9698      9701      9675      9704      9705      9707
      9675      9704      9705      9706      9708      9707      9705      9704
      9709      9707      9705      9704      9710      9707      9705      9704
      9708      9707      9705      9706      9709      9707      9705      9706
      9710      9707      9705      9706      9705      9707      9710      9711
      9705      9707      9710      9712      9705      9707      9710      9713
      9708      9707      9710      9711      9708      9707      9710      9712
      9708      9707      9710      9713      9709      9707      9710      9711
      9709      9707      9710      9712      9709      9707      9710      9713
      9707      9710      9713      9714      9707      9710      9713      9715
      9707      9710      9713      9716      9711      9710      9713      9714
      9711      9710      9713      9715      9711      9710      9713      9716
      9712      9710      9713      9714      9712      9710      9713      9715
      9712      9710      9713      9716      9710      9713      9716      9717
      9710      9713      9716      9718      9710      9713      9716      9719
      9714      9713      9716      9717      9714      9713      9716      9718
      9714      9713      9716      9719      9715      9713      9716      9717
      9715      9713      9716      9718      9715      9713      9716      9719
      9713      9716      9719      9720      9713      9716      9719      9721
      9713      9716      9719      9722      9717      9716      9719      9720
      9717      9716      9719      9721      9717      9716      9719      9722
      9718      9716      9719      9720      9718      9716      9719      9721
      9718      9716      9719      9722      9716      9719      9722      9723
      9716      9719      9722      9724      9716      9719      9722      9725
      9720      9719      9722      9723      9720      9719      9722      9724
      9720      9719      9722      9725      9721      9719      9722      9723
      9721      9719      9722      9724      9721      9719      9722      9725
      9719      9722      9725      9726      9719      9722      9725      9727
      9719      9722      9725      9728      9723      9722      9725      9726
      9723      9722      9725      9727      9723      9722      9725      9728
      9724      9722      9725      9726      9724      9722      9725      9727
      9724      9722      9725      9728      9722      9725      9728      9729
      9722      9725      9728      9730      9726      9725      9728      9729
      9726      9725      9728      9730      9727      9725      9728      9729
      9727      9725      9728      9730      9725      9728      9730      9731
      9725      9728      9730      9732      9729      9728      9730      9731
      9729      9728      9730      9732      9728      9730      9732      9733
      9728      9730      9732      9734      9728      9730      9732      9735
      9731      9730      9732      9733      9731      9730      9732      9734
      9731      9730      9732      9735      9730      9732      9735      9736
      9730      9732      9735      9737      9730      9732      9735      9738
      9733      9732      9735      9736      9733      9732      9735      9737
      9733      9732      9735      9738      9734      9732      9735      9736
      9734      9732      9735      9737      9734      9732      9735      9738
      9732      9735      9738      9739      9732      9735      9738      9740
      9732      9735      9738      9741      9736      9735      9738      9739
      9736      9735      9738      9740      9736      9735      9738      9741
      9737      9735      9738      9739      9737      9735      9738      9740
      9737      9735      9738      9741      9735      9738      9741      9742
      9735      9738      9741      9743      9735      9738      9741      9744
      9739      9738      9741      9742      9739      9738      9741      9743
      9739      9738      9741      9744      9740      9738      9741      9742
      9740      9738      9741      9743      9740      9738      9741      9744
      9738      9741      9744      9745      9738      9741      9744      9746
      9738      9741      9744      9747      9742      9741      9744      9745
      9742      9741      9744      9746      9742      9741      9744      9747
      9743      9741      9744      9745      9743      9741      9744      9746
      9743      9741      9744      9747      9741      9744      9747      9748
      9741      9744      9747      9749      9741      9744      9747      9750
      9745      9744      9747      9748      9745      9744      9747      9749
      9745      9744      9747      9750      9746      9744      9747      9748
      9746      9744      9747      9749      9746      9744      9747      9750
      9744      9747      9750      9751      9744      9747      9750      9752
      9744      9747      9750      9753      9748      9747      9750      9751
      9748      9747      9750      9752      9748      9747      9750      9753
      9749      9747      9750      9751      9749      9747      9750      9752
      9749      9747      9750      9753      9747      9750      9753      9754
      9747      9750      9753      9755      9747      9750      9753      9756
      9751      9750      9753      9754      9751      9750      9753      9755
      9751      9750      9753      9756      9752      9750      9753      9754
      9752      9750      9753      9755      9752      9750      9753      9756
      9758      9757      9761      9762      9758      9757      9761      9763
      9758      9757      9761      9764      9759      9757      9761      9762
      9759      9757      9761      9763      9759      9757      9761      9764
      9760      9757      9761      9762      9760      9757      9761      9763
      9760      9757      9761      9764      9757      9761      9764      9765
      9757      9761      9764      9766      9757      9761      9764      9767
      9762      9761      9764      9765      9762      9761      9764      9766
      9762      9761      9764      9767      9763      9761      9764      9765
      9763      9761      9764      9766      9763      9761      9764      9767
      9761      9764      9767      9768      9761      9764      9767      9769
      9761      9764      9767      9770      9765      9764      9767      9768
      9765      9764      9767      9769      9765      9764      9767      9770
      9766      9764      9767      9768      9766      9764      9767      9769
      9766      9764      9767      9770      9764      9767      9770      9771
      9764      9767      9770      9772      9764      9767      9770      9773
      9768      9767      9770      9771      9768      9767      9770      9772
      9768      9767      9770      9773      9769      9767      9770      9771
      9769      9767      9770      9772      9769      9767      9770      9773
      9767      9770      9773      9774      9767      9770      9773      9775
      9767      9770      9773      9776      9771      9770      9773      9774
      9771      9770      9773      9775      9771      9770      9773      9776
      9772      9770      9773      9774      9772      9770      9773      9775
      9772      9770      9773      9776      9770      9773      9776      9777
      9770      9773      9776      9778      9770      9773      9776      9779
      9774      9773      9776      9777      9774      9773      9776      9778
      9774      9773      9776      9779      9775      9773      9776      9777
      9775      9773      9776      9778      9775      9773      9776      9779
      9773      9776      9779      9780      9773      9776      9779      9781
      9773      9776      9779      9782      9777      9776      9779      9780
      9777      9776      9779      9781      9777      9776      9779      9782
      9778      9776      9779      9780      9778      9776      9779      9781
      9778      9776      9779      9782      9776      9779      9782      9783
      9776      9779      9782      9784      9776      9779      9782      9785
      9780      9779      9782      9783      9780      9779      9782      9784
      9780      9779      9782      9785      9781      9779      9782      9783
      9781      9779      9782      9784      9781      9779      9782      9785
      9779      9782      9785      9786      9779      9782      9785      9787
      9779      9782      9785      9788      9783      9782      9785      9786
      9783      9782      9785      9787      9783      9782      9785      9788
      9784      9782      9785      9786      9784      9782      9785      9787
      9784      9782      9785      9788      9782      9785      9788      9789
      9782      9785      9788      9790      9782      9785      9788      9791
      9786      9785      9788      9789      9786      9785      9788      9790
      9786      9785      9788      9791      9787      9785      9788      9789
      9787      9785      9788      9790      9787      9785      9788      9791
      9785      9788      9791      9792      9785      9788      9791      9793
      9785      9788      9791      9794      9789      9788      9791      9792
      9789      9788      9791      9793      9789      9788      9791      9794
      9790      9788      9791      9792      9790      9788      9791      9793
      9790      9788      9791      9794      9788      9791      9794      9795
      9788      9791      9794      9796      9788      9791      9794      9797
      9792      9791      9794      9795      9792      9791      9794      9796
      9792      9791      9794      9797      9793      9791      9794      9795
      9793      9791      9794      9796      9793      9791      9794      9797
      9791      9794      9797      9798      9791      9794      9797      9799
      9791      9794      9797      9800      9795      9794      9797      9798
      9795      9794      9797      9799      9795      9794      9797      9800
      9796      9794      9797      9798      9796      9794      9797      9799
      9796      9794      9797      9800      9794      9797      9800      9803
      9794      9797      9800      9801      9794      9797      9800      9802
      9798      9797      9800      9803      9798      9797      9800      9801
      9798      9797      9800      9802      9799      9797      9800      9803
      9799      9797      9800      9801      9799      9797      9800      9802
      9804      9803      9800      9797      9805      9803      9800      9797
      9804      9803      9800      9801      9805      9803      9800      9801
      9804      9803      9800      9802      9805      9803      9800      9802
      9800      9803      9805      9806      9804      9803      9805      9806
      9803      9805      9806      9807      9803      9805      9806      9808
      9803      9805      9806      9809      9805      9806      9809      9810
      9805      9806      9809      9811      9805      9806      9809      9838
      9807      9806      9809      9810      9807      9806      9809      9811
      9807      9806      9809      9838      9808      9806      9809      9810
      9808      9806      9809      9811      9808      9806      9809      9838
      9806      9809      9811      9812      9806      9809      9811      9813
      9806      9809      9811      9814      9806      9809      9838      9839
      9810      9809      9811      9812      9810      9809      9811      9813
      9810      9809      9811      9814      9810      9809      9838      9839
      9812      9811      9809      9838      9813      9811      9809      9838
      9814      9811      9809      9838      9811      9809      9838      9839
      9809      9811      9814      9815      9812      9811      9814      9815
      9813      9811      9814      9815      9811      9814      9815      9816
      9811      9814      9815      9836      9811      9814      9815      9837
      9814      9815      9816      9817      9817      9816      9815      9836
      9817      9816      9815      9837      9815      9816      9817      9818
      9815      9816      9817      9819      9815      9816      9817      9820
      9816      9817      9820      9821      9816      9817      9820      9822
      9816      9817      9820      9823      9818      9817      9820      9821
      9818      9817      9820      9822      9818      9817      9820      9823
      9819      9817      9820      9821      9819      9817      9820      9822
      9819      9817      9820      9823      9817      9820      9823      9824
      9817      9820      9823      9828      9817      9820      9823      9832
      9821      9820      9823      9824      9821      9820      9823      9828
      9821      9820      9823      9832      9822      9820      9823      9824
      9822      9820      9823      9828      9822      9820      9823      9832
      9820      9823      9824      9825      9820      9823      9824      9826
      9820      9823      9824      9827      9820      9823      9828      9829
      9820      9823      9828      9830      9820      9823      9828      9831
      9820      9823      9832      9833      9820      9823      9832      9834
      9820      9823      9832      9835      9825      9824      9823      9828
      9826      9824      9823      9828      9827      9824      9823      9828
      9824      9823      9828      9829      9824      9823      9828      9830
      9824      9823      9828      9831      9825      9824      9823      9832
      9826      9824      9823      9832      9827      9824      9823      9832
      9824      9823      9832      9833      9824      9823      9832      9834
      9824      9823      9832      9835      9829      9828      9823      9832
      9830      9828      9823      9832      9831      9828      9823      9832
      9828      9823      9832      9833      9828      9823      9832      9834
      9828      9823      9832      9835      9809      9838      9839      9841
      9809      9838      9839      9840      9842      9841      9839      9838
      9843      9841      9839      9838      9844      9841      9839      9838
      9842      9841      9839      9840      9843      9841      9839      9840
      9844      9841      9839      9840      9839      9841      9844      9845
      9839      9841      9844      9846      9839      9841      9844      9847
      9842      9841      9844      9845      9842      9841      9844      9846
      9842      9841      9844      9847      9843      9841      9844      9845
      9843      9841      9844      9846      9843      9841      9844      9847
      9841      9844      9847      9848      9841      9844      9847      9849
      9841      9844      9847      9850      9845      9844      9847      9848
      9845      9844      9847      9849      9845      9844      9847      9850
      9846      9844      9847      9848      9846      9844      9847      9849
      9846      9844      9847      9850      9844      9847      9850      9851
      9844      9847      9850      9852      9844      9847      9850      9853
      9848      9847      9850      9851      9848      9847      9850      9852
      9848      9847      9850      9853      9849      9847      9850      9851
      9849      9847      9850      9852      9849      9847      9850      9853
      9847      9850      9853      9854      9847      9850      9853      9855
      9847      9850      9853      9856      9851      9850      9853      9854
      9851      9850      9853      9855      9851      9850      9853      9856
      9852      9850      9853      9854      9852      9850      9853      9855
      9852      9850      9853      9856      9850      9853      9856      9857
      9850      9853      9856      9858      9850      9853      9856      9859
      9854      9853      9856      9857      9854      9853      9856      9858
      9854      9853      9856      9859      9855      9853      9856      9857
      9855      9853      9856      9858      9855      9853      9856      9859
      9853      9856      9859      9860      9853      9856      9859      9861
      9853      9856      9859      9862      9857      9856      9859      9860
      9857      9856      9859      9861      9857      9856      9859      9862
      9858      9856      9859      9860      9858      9856      9859      9861
      9858      9856      9859      9862      9856      9859      9862      9863
      9856      9859      9862      9864      9860      9859      9862      9863
      9860      9859      9862      9864      9861      9859      9862      9863
      9861      9859      9862      9864      9859      9862      9864      9865
      9859      9862      9864      9866      9863      9862      9864      9865
      9863      9862      9864      9866      9862      9864      9866      9867
      9862      9864      9866      9868      9862      9864      9866      9869
      9865      9864      9866      9867      9865      9864      9866      9868
      9865      9864      9866      9869      9864      9866      9869      9870
      9864      9866      9869      9871      9864      9866      9869      9872
      9867      9866      9869      9870      9867      9866      9869      9871
      9867      9866      9869      9872      9868      9866      9869      9870
      9868      9866      9869      9871      9868      9866      9869      9872
      9866      9869      9872      9873      9866      9869      9872      9874
      9866      9869      9872      9875      9870      9869      9872      9873
      9870      9869      9872      9874      9870      9869      9872      9875
      9871      9869      9872      9873      9871      9869      9872      9874
      9871      9869      9872      9875      9869      9872      9875      9876
      9869      9872      9875      9877      9869      9872      9875      9878
      9873      9872      9875      9876      9873      9872      9875      9877
      9873      9872      9875      9878      9874      9872      9875      9876
      9874      9872      9875      9877      9874      9872      9875      9878
      9872      9875      9878      9879      9872      9875      9878      9880
      9872      9875      9878      9881      9876      9875      9878      9879
      9876      9875      9878      9880      9876      9875      9878      9881
      9877      9875      9878      9879      9877      9875      9878      9880
      9877      9875      9878      9881      9875      9878      9881      9882
      9875      9878      9881      9883      9875      9878      9881      9884
      9879      9878      9881      9882      9879      9878      9881      9883
      9879      9878      9881      9884      9880      9878      9881      9882
      9880      9878      9881      9883      9880      9878      9881      9884
      9878      9881      9884      9885      9878      9881      9884      9886
      9878      9881      9884      9887      9882      9881      9884      9885
      9882      9881      9884      9886      9882      9881      9884      9887
      9883      9881      9884      9885      9883      9881      9884      9886
      9883      9881      9884      9887      9881      9884      9887      9888
      9881      9884      9887      9889      9881      9884      9887      9890
      9885      9884      9887      9888      9885      9884      9887      9889
      9885      9884      9887      9890      9886      9884      9887      9888
      9886      9884      9887      9889      9886      9884      9887      9890
      9892      9891      9895      9896      9892      9891      9895      9897
      9892      9891      9895      9898      9893      9891      9895      9896
      9893      9891      9895      9897      9893      9891      9895      9898
      9894      9891      9895      9896      9894      9891      9895      9897
      9894      9891      9895      9898      9891      9895      9898      9899
      9891      9895      9898      9900      9891      9895      9898      9901
      9896      9895      9898      9899      9896      9895      9898      9900
      9896      9895      9898      9901      9897      9895      9898      9899
      9897      9895      9898      9900      9897      9895      9898      9901
      9895      9898      9901      9902      9895      9898      9901      9903
      9895      9898      9901      9904      9899      9898      9901      9902
      9899      9898      9901      9903      9899      9898      9901      9904
      9900      9898      9901      9902      9900      9898      9901      9903
      9900      9898      9901      9904      9898      9901      9904      9905
      9898      9901      9904      9906      9898      9901      9904      9907
      9902      9901      9904      9905      9902      9901      9904      9906
      9902      9901      9904      9907      9903      9901      9904      9905
      9903      9901      9904      9906      9903      9901      9904      9907
      9901      9904      9907      9908      9901      9904      9907      9909
      9901      9904      9907      9910      9905      9904      9907      9908
      9905      9904      9907      9909      9905      9904      9907      9910
      9906      9904      9907      9908      9906      9904      9907      9909
      9906      9904      9907      9910      9904      9907      9910      9911
      9904      9907      9910      9912      9904      9907      9910      9913
      9908      9907      9910      9911      9908      9907      9910      9912
      9908      9907      9910      9913      9909      9907      9910      9911
      9909      9907      9910      9912      9909      9907      9910      9913
      9907      9910      9913      9914      9907      9910      9913      9915
      9907      9910      9913      9916      9911      9910      9913      9914
      9911      9910      9913      9915      9911      9910      9913      9916
      9912      9910      9913      9914      9912      9910      9913      9915
      9912      9910      9913      9916      9910      9913      9916      9917
      9910      9913      9916      9918      9910      9913      9916      9919
      9914      9913      9916      9917      9914      9913      9916      9918
      9914      9913      9916      9919      9915      9913      9916      9917
      9915      9913      9916      9918      9915      9913      9916      9919
      9913      9916      9919      9920      9913      9916      9919      9921
      9913      9916      9919      9922      9917      9916      9919      9920
      9917      9916      9919      9921      9917      9916      9919      9922
      9918      9916      9919      9920      9918      9916      9919      9921
      9918      9916      9919      9922      9916      9919      9922      9923
      9916      9919      9922      9924      9916      9919      9922      9925
      9920      9919      9922      9923      9920      9919      9922      9924
      9920      9919      9922      9925      9921      9919      9922      9923
      9921      9919      9922      9924      9921      9919      9922      9925
      9919      9922      9925      9926      9919      9922      9925      9927
      9919      9922      9925      9928      9923      9922      9925      9926
      9923      9922      9925      9927      9923      9922      9925      9928
      9924      9922      9925      9926      9924      9922      9925      9927
      9924      9922      9925      9928      9922      9925      9928      9929
      9922      9925      9928      9930      9922      9925      9928      9931
      9926      9925      9928      9929      9926      9925      9928      9930
      9926      9925      9928      9931      9927      9925      9928      9929
      9927      9925      9928      9930      9927      9925      9928      9931
      9925      9928      9931      9932      9925      9928      9931      9933
      9925      9928      9931      9934      9929      9928      9931      9932
      9929      9928      9931      9933      9929      9928      9931      9934
      9930      9928      9931      9932      9930      9928      9931      9933
      9930      9928      9931      9934      9928      9931      9934      9937
      9928      9931      9934      9935      9928      9931      9934      9936
      9932      9931      9934      9937      9932      9931      9934      9935
      9932      9931      9934      9936      9933      9931      9934      9937
      9933      9931      9934      9935      9933      9931      9934      9936
      9938      9937      9934      9931      9939      9937      9934      9931
      9938      9937      9934      9935      9939      9937      9934      9935
      9938      9937      9934      9936      9939      9937      9934      9936
      9934      9937      9939      9940      9938      9937      9939      9940
      9937      9939      9940      9941      9937      9939      9940      9942
      9937      9939      9940      9943      9939      9940      9943      9944
      9939      9940      9943      9945      9939      9940      9943      9972
      9941      9940      9943      9944      9941      9940      9943      9945
      9941      9940      9943      9972      9942      9940      9943      9944
      9942      9940      9943      9945      9942      9940      9943      9972
      9940      9943      9945      9946      9940      9943      9945      9947
      9940      9943      9945      9948      9940      9943      9972      9973
      9944      9943      9945      9946      9944      9943      9945      9947
      9944      9943      9945      9948      9944      9943      9972      9973
      9946      9945      9943      9972      9947      9945      9943      9972
      9948      9945      9943      9972      9945      9943      9972      9973
      9943      9945      9948      9949      9946      9945      9948      9949
      9947      9945      9948      9949      9945      9948      9949      9950
      9945      9948      9949      9970      9945      9948      9949      9971
      9948      9949      9950      9951      9951      9950      9949      9970
      9951      9950      9949      9971      9949      9950      9951      9952
      9949      9950      9951      9953      9949      9950      9951      9954
      9950      9951      9954      9955      9950      9951      9954      9956
      9950      9951      9954      9957      9952      9951      9954      9955
      9952      9951      9954      9956      9952      9951      9954      9957
      9953      9951      9954      9955      9953      9951      9954      9956
      9953      9951      9954      9957      9951      9954      9957      9958
      9951      9954      9957      9962      9951      9954      9957      9966
      9955      9954      9957      9958      9955      9954      9957      9962
      9955      9954      9957      9966      9956      9954      9957      9958
      9956      9954      9957      9962      9956      9954      9957      9966
      9954      9957      9958      9959      9954      9957      9958      9960
      9954      9957      9958      9961      9954      9957      9962      9963
      9954      9957      9962      9964      9954      9957      9962      9965
      9954      9957      9966      9967      9954      9957      9966      9968
      9954      9957      9966      9969      9959      9958      9957      9962
      9960      9958      9957      9962      9961      9958      9957      9962
      9958      9957      9962      9963      9958      9957      9962      9964
      9958      9957      9962      9965      9959      9958      9957      9966
      9960      9958      9957      9966      9961      9958      9957      9966
      9958      9957      9966      9967      9958      9957      9966      9968
      9958      9957      9966      9969      9963      9962      9957      9966
      9964      9962      9957      9966      9965      9962      9957      9966
      9962      9957      9966      9967      9962      9957      9966      9968
      9962      9957      9966      9969      9943      9972      9973      9975
      9943      9972      9973      9974      9976      9975      9973      9972
      9977      9975      9973      9972      9978      9975      9973      9972
      9976      9975      9973      9974      9977      9975      9973      9974
      9978      9975      9973      9974      9973      9975      9978      9979
      9973      9975      9978      9980      9973      9975      9978      9981
      9976      9975      9978      9979      9976      9975      9978      9980
      9976      9975      9978      9981      9977      9975      9978      9979
      9977      9975      9978      9980      9977      9975      9978      9981
      9975      9978      9981      9982      9975      9978      9981      9983
      9975      9978      9981      9984      9979      9978      9981      9982
      9979      9978      9981      9983      9979      9978      9981      9984
      9980      9978      9981      9982      9980      9978      9981      9983
      9980      9978      9981      9984      9978      9981      9984      9985
      9978      9981      9984      9986      9978      9981      9984      9987
      9982      9981      9984      9985      9982      9981      9984      9986
      9982      9981      9984      9987      9983      9981      9984      9985
      9983      9981      9984      9986      9983      9981      9984      9987
      9981      9984      9987      9988      9981      9984      9987      9989
      9981      9984      9987      9990      9985      9984      9987      9988
      9985      9984      9987      9989      9985      9984      9987      9990
      9986      9984      9987      9988      9986      9984      9987      9989
      9986      9984      9987      9990      9984      9987      9990      9991
      9984      9987      9990      9992      9984      9987      9990      9993
      9988      9987      9990      9991      9988      9987      9990      9992
      9988      9987      9990      9993      9989      9987      9990      9991
      9989      9987      9990      9992      9989      9987      9990      9993
      9987      9990      9993      9994      9987      9990      9993      9995
      9987      9990      9993      9996      9991      9990      9993      9994
      9991      9990      9993      9995      9991      9990      9993      9996
      9992      9990      9993      9994      9992      9990      9993      9995
      9992      9990      9993      9996      9990      9993      9996      9997
      9990      9993      9996      9998      9994      9993      9996      9997
      9994      9993      9996      9998      9995      9993      9996      9997
      9995      9993      9996      9998      9993      9996      9998      9999
      9993      9996      9998     10000      9997      9996      9998      9999
      9997      9996      9998     10000      9996      9998     10000     10001
      9996      9998     10000     10002      9996      9998     10000     10003
      9999      9998     10000     10001      9999      9998     10000     10002
      9999      9998     10000     10003      9998     10000     10003     10004
      9998     10000     10003     10005      9998     10000     10003     10006
     10001     10000     10003     10004     10001     10000     10003     10005
     10001     10000     10003     10006     10002     10000     10003     10004
     10002     10000     10003     10005     10002     10000     10003     10006
     10000     10003     10006     10007     10000     10003     10006     10008
     10000     10003     10006     10009     10004     10003     10006     10007
     10004     10003     10006     10008     10004     10003     10006     10009
     10005     10003     10006     10007     10005     10003     10006     10008
     10005     10003     10006     10009     10003     10006     10009     10010
     10003     10006     10009     10011     10003     10006     10009     10012
     10007     10006     10009     10010     10007     10006     10009     10011
     10007     10006     10009     10012     10008     10006     10009     10010
     10008     10006     10009     10011     10008     10006     10009     10012
     10006     10009     10012     10013     10006     10009     10012     10014
     10006     10009     10012     10015     10010     10009     10012     10013
     10010     10009     10012     10014     10010     10009     10012     10015
     10011     10009     10012     10013     10011     10009     10012     10014
     10011     10009     10012     10015     10009     10012     10015     10016
     10009     10012     10015     10017     10009     10012     10015     10018
     10013     10012     10015     10016     10013     10012     10015     10017
     10013     10012     10015     10018     10014     10012     10015     10016
     10014     10012     10015     10017     10014     10012     10015     10018
     10012     10015     10018     10019     10012     10015     10018     10020
     10012     10015     10018     10021     10016     10015     10018     10019
     10016     10015     10018     10020     10016     10015     10018     10021
     10017     10015     10018     10019     10017     10015     10018     10020
     10017     10015     10018     10021     10015     10018     10021     10022
     10015     10018     10021     10023     10015     10018     10021     10024
     10019     10018     10021     10022     10019     10018     10021     10023
     10019     10018     10021     10024     10020     10018     10021     10022
     10020     10018     10021     10023     10020     10018     10021     10024
     10026     10025     10029     10030     10026     10025     10029     10031
     10026     10025     10029     10032     10027     10025     10029     10030
     10027     10025     10029     10031     10027     10025     10029     10032
     10028     10025     10029     10030     10028     10025     10029     10031
     10028     10025     10029     10032     10025     10029     10032     10033
     10025     10029     10032     10034     10025     10029     10032     10035
     10030     10029     10032     10033     10030     10029     10032     10034
     10030     10029     10032     10035     10031     10029     10032     10033
     10031     10029     10032     10034     10031     10029     10032     10035
     10029     10032     10035     10036     10029     10032     10035     10037
     10029     10032     10035     10038     10033     10032     10035     10036
     10033     10032     10035     10037     10033     10032     10035     10038
     10034     10032     10035     10036     10034     10032     10035     10037
     10034     10032     10035     10038     10032     10035     10038     10039
     10032     10035     10038     10040     10032     10035     10038     10041
     10036     10035     10038     10039     10036     10035     10038     10040
     10036     10035     10038     10041     10037     10035     10038     10039
     10037     10035     10038     10040     10037     10035     10038     10041
     10035     10038     10041     10042     10035     10038     10041     10043
     10035     10038     10041     10044     10039     10038     10041     10042
     10039     10038     10041     10043     10039     10038     10041     10044
     10040     10038     10041     10042     10040     10038     10041     10043
     10040     10038     10041     10044     10038     10041     10044     10045
     10038     10041     10044     10046     10038     10041     10044     10047
     10042     10041     10044     10045     10042     10041     10044     10046
     10042     10041     10044     10047     10043     10041     10044     10045
     10043     10041     10044     10046     10043     10041     10044     10047
     10041     10044     10047     10048     10041     10044     10047     10049
     10041     10044     10047     10050     10045     10044     10047     10048
     10045     10044     10047     10049     10045     10044     10047     10050
     10046     10044     10047     10048     10046     10044     10047     10049
     10046     10044     10047     10050     10044     10047     10050     10051
     10044     10047     10050     10052     10044     10047     10050     10053
     10048     10047     10050     10051     10048     10047     10050     10052
     10048     10047     10050     10053     10049     10047     10050     10051
     10049     10047     10050     10052     10049     10047     10050     10053
     10047     10050     10053     10054     10047     10050     10053     10055
     10047     10050     10053     10056     10051     10050     10053     10054
     10051     10050     10053     10055     10051     10050     10053     10056
     10052     10050     10053     10054     10052     10050     10053     10055
     10052     10050     10053     10056     10050     10053     10056     10057
     10050     10053     10056     10058     10050     10053     10056     10059
     10054     10053     10056     10057     10054     10053     10056     10058
     10054     10053     10056     10059     10055     10053     10056     10057
     10055     10053     10056     10058     10055     10053     10056     10059
     10053     10056     10059     10060     10053     10056     10059     10061
     10053     10056     10059     10062     10057     10056     10059     10060
     10057     10056     10059     10061     10057     10056     10059     10062
     10058     10056     10059     10060     10058     10056     10059     10061
     10058     10056     10059     10062     10056     10059     10062     10063
     10056     10059     10062     10064     10056     10059     10062     10065
     10060     10059     10062     10063     10060     10059     10062     10064
     10060     10059     10062     10065     10061     10059     10062     10063
     10061     10059     10062     10064     10061     10059     10062     10065
     10059     10062     10065     10066     10059     10062     10065     10067
     10059     10062     10065     10068     10063     10062     10065     10066
     10063     10062     10065     10067     10063     10062     10065     10068
     10064     10062     10065     10066     10064     10062     10065     10067
     10064     10062     10065     10068     10062     10065     10068     10071
     10062     10065     10068     10069     10062     10065     10068     10070
     10066     10065     10068     10071     10066     10065     10068     10069
     10066     10065     10068     10070     10067     10065     10068     10071
     10067     10065     10068     10069     10067     10065     10068     10070
     10072     10071     10068     10065     10073     10071     10068     10065
     10072     10071     10068     10069     10073     10071     10068     10069
     10072     10071     10068     10070     10073     10071     10068     10070
     10068     10071     10073     10074     10072     10071     10073     10074
     10071     10073     10074     10075     10071     10073     10074     10076
     10071     10073     10074     10077     10073     10074     10077     10078
     10073     10074     10077     10079     10073     10074     10077     10106
     10075     10074     10077     10078     10075     10074     10077     10079
     10075     10074     10077     10106     10076     10074     10077     10078
     10076     10074     10077     10079     10076     10074     10077     10106
     10074     10077     10079     10080     10074     10077     10079     10081
     10074     10077     10079     10082     10074     10077     10106     10107
     10078     10077     10079     10080     10078     10077     10079     10081
     10078     10077     10079     10082     10078     10077     10106     10107
     10080     10079     10077     10106     10081     10079     10077     10106
     10082     10079     10077     10106     10079     10077     10106     10107
     10077     10079     10082     10083     10080     10079     10082     10083
     10081     10079     10082     10083     10079     10082     10083     10084
     10079     10082     10083     10104     10079     10082     10083     10105
     10082     10083     10084     10085     10085     10084     10083     10104
     10085     10084     10083     10105     10083     10084     10085     10086
     10083     10084     10085     10087     10083     10084     10085     10088
     10084     10085     10088     10089     10084     10085     10088     10090
     10084     10085     10088     10091     10086     10085     10088     10089
     10086     10085     10088     10090     10086     10085     10088     10091
     10087     10085     10088     10089     10087     10085     10088     10090
     10087     10085     10088     10091     10085     10088     10091     10092
     10085     10088     10091     10096     10085     10088     10091     10100
     10089     10088     10091     10092     10089     10088     10091     10096
     10089     10088     10091     10100     10090     10088     10091     10092
     10090     10088     10091     10096     10090     10088     10091     10100
     10088     10091     10092     10093     10088     10091     10092     10094
     10088     10091     10092     10095     10088     10091     10096     10097
     10088     10091     10096     10098     10088     10091     10096     10099
     10088     10091     10100     10101     10088     10091     10100     10102
     10088     10091     10100     10103     10093     10092     10091     10096
     10094     10092     10091     10096     10095     10092     10091     10096
     10092     10091     10096     10097     10092     10091     10096     10098
     10092     10091     10096     10099     10093     10092     10091     10100
     10094     10092     10091     10100     10095     10092     10091     10100
     10092     10091     10100     10101     10092     10091     10100     10102
     10092     10091     10100     10103     10097     10096     10091     10100
     10098     10096     10091     10100     10099     10096     10091     10100
     10096     10091     10100     10101     10096     10091     10100     10102
     10096     10091     10100     10103     10077     10106     10107     10109
     10077     10106     10107     10108     10110     10109     10107     10106
     10111     10109     10107     10106     10112     10109     10107     10106
     10110     10109     10107     10108     10111     10109     10107     10108
     10112     10109     10107     10108     10107     10109     10112     10113
     10107     10109     10112     10114     10107     10109     10112     10115
     10110     10109     10112     10113     10110     10109     10112     10114
     10110     10109     10112     10115     10111     10109     10112     10113
     10111     10109     10112     10114     10111     10109     10112     10115
     10109     10112     10115     10116     10109     10112     10115     10117
     10109     10112     10115     10118     10113     10112     10115     10116
     10113     10112     10115     10117     10113     10112     10115     10118
     10114     10112     10115     10116     10114     10112     10115     10117
     10114     10112     10115     10118     10112     10115     10118     10119
     10112     10115     10118     10120     10112     10115     10118     10121
     10116     10115     10118     10119     10116     10115     10118     10120
     10116     10115     10118     10121     10117     10115     10118     10119
     10117     10115     10118     10120     10117     10115     10118     10121
     10115     10118     10121     10122     10115     10118     10121     10123
     10115     10118     10121     10124     10119     10118     10121     10122
     10119     10118     10121     10123     10119     10118     10121     10124
     10120     10118     10121     10122     10120     10118     10121     10123
     10120     10118     10121     10124     10118     10121     10124     10125
     10118     10121     10124     10126     10118     10121     10124     10127
     10122     10121     10124     10125     10122     10121     10124     10126
     10122     10121     10124     10127     10123     10121     10124     10125
     10123     10121     10124     10126     10123     10121     10124     10127
     10121     10124     10127     10128     10121     10124     10127     10129
     10121     10124     10127     10130     10125     10124     10127     10128
     10125     10124     10127     10129     10125     10124     10127     10130
     10126     10124     10127     10128     10126     10124     10127     10129
     10126     10124     10127     10130     10124     10127     10130     10131
     10124     10127     10130     10132     10128     10127     10130     10131
     10128     10127     10130     10132     10129     10127     10130     10131
     10129     10127     10130     10132     10127     10130     10132     10133
     10127     10130     10132     10134     10131     10130     10132     10133
     10131     10130     10132     10134     10130     10132     10134     10135
     10130     10132     10134     10136     10130     10132     10134     10137
     10133     10132     10134     10135     10133     10132     10134     10136
     10133     10132     10134     10137     10132     10134     10137     10138
     10132     10134     10137     10139     10132     10134     10137     10140
     10135     10134     10137     10138     10135     10134     10137     10139
     10135     10134     10137     10140     10136     10134     10137     10138
     10136     10134     10137     10139     10136     10134     10137     10140
     10134     10137     10140     10141     10134     10137     10140     10142
     10134     10137     10140     10143     10138     10137     10140     10141
     10138     10137     10140     10142     10138     10137     10140     10143
     10139     10137     10140     10141     10139     10137     10140     10142
     10139     10137     10140     10143     10137     10140     10143     10144
     10137     10140     10143     10145     10137     10140     10143     10146
     10141     10140     10143     10144     10141     10140     10143     10145
     10141     10140     10143     10146     10142     10140     10143     10144
     10142     10140     10143     10145     10142     10140     10143     10146
     10140     10143     10146     10147     10140     10143     10146     10148
     10140     10143     10146     10149     10144     10143     10146     10147
     10144     10143     10146     10148     10144     10143     10146     10149
     10145     10143     10146     10147     10145     10143     10146     10148
     10145     10143     10146     10149     10143     10146     10149     10150
     10143     10146     10149     10151     10143     10146     10149     10152
     10147     10146     10149     10150     10147     10146     10149     10151
     10147     10146     10149     10152     10148     10146     10149     10150
     10148     10146     10149     10151     10148     10146     10149     10152
     10146     10149     10152     10153     10146     10149     10152     10154
     10146     10149     10152     10155     10150     10149     10152     10153
     10150     10149     10152     10154     10150     10149     10152     10155
     10151     10149     10152     10153     10151     10149     10152     10154
     10151     10149     10152     10155     10149     10152     10155     10156
     10149     10152     10155     10157     10149     10152     10155     10158
     10153     10152     10155     10156     10153     10152     10155     10157
     10153     10152     10155     10158     10154     10152     10155     10156
     10154     10152     10155     10157     10154     10152     10155     10158
     10160     10159     10163     10164     10160     10159     10163     10165
     10160     10159     10163     10166     10161     10159     10163     10164
     10161     10159     10163     10165     10161     10159     10163     10166
     10162     10159     10163     10164     10162     10159     10163     10165
     10162     10159     10163     10166     10159     10163     10166     10167
     10159     10163     10166     10168     10159     10163     10166     10169
     10164     10163     10166     10167     10164     10163     10166     10168
     10164     10163     10166     10169     10165     10163     10166     10167
     10165     10163     10166     10168     10165     10163     10166     10169
     10163     10166     10169     10170     10163     10166     10169     10171
     10163     10166     10169     10172     10167     10166     10169     10170
     10167     10166     10169     10171     10167     10166     10169     10172
     10168     10166     10169     10170     10168     10166     10169     10171
     10168     10166     10169     10172     10166     10169     10172     10173
     10166     10169     10172     10174     10166     10169     10172     10175
     10170     10169     10172     10173     10170     10169     10172     10174
     10170     10169     10172     10175     10171     10169     10172     10173
     10171     10169     10172     10174     10171     10169     10172     10175
     10169     10172     10175     10176     10169     10172     10175     10177
     10169     10172     10175     10178     10173     10172     10175     10176
     10173     10172     10175     10177     10173     10172     10175     10178
     10174     10172     10175     10176     10174     10172     10175     10177
     10174     10172     10175     10178     10172     10175     10178     10179
     10172     10175     10178     10180     10172     10175     10178     10181
     10176     10175     10178     10179     10176     10175     10178     10180
     10176     10175     10178     10181     10177     10175     10178     10179
     10177     10175     10178     10180     10177     10175     10178     10181
     10175     10178     10181     10182     10175     10178     10181     10183
     10175     10178     10181     10184     10179     10178     10181     10182
     10179     10178     10181     10183     10179     10178     10181     10184
     10180     10178     10181     10182     10180     10178     10181     10183
     10180     10178     10181     10184     10178     10181     10184     10185
     10178     10181     10184     10186     10178     10181     10184     10187
     10182     10181     10184     10185     10182     10181     10184     10186
     10182     10181     10184     10187     10183     10181     10184     10185
     10183     10181     10184     10186     10183     10181     10184     10187
     10181     10184     10187     10188     10181     10184     10187     10189
     10181     10184     10187     10190     10185     10184     10187     10188
     10185     10184     10187     10189     10185     10184     10187     10190
     10186     10184     10187     10188     10186     10184     10187     10189
     10186     10184     10187     10190     10184     10187     10190     10191
     10184     10187     10190     10192     10184     10187     10190     10193
     10188     10187     10190     10191     10188     10187     10190     10192
     10188     10187     10190     10193     10189     10187     10190     10191
     10189     10187     10190     10192     10189     10187     10190     10193
     10187     10190     10193     10194     10187     10190     10193     10195
     10187     10190     10193     10196     10191     10190     10193     10194
     10191     10190     10193     10195     10191     10190     10193     10196
     10192     10190     10193     10194     10192     10190     10193     10195
     10192     10190     10193     10196     10190     10193     10196     10197
     10190     10193     10196     10198     10190     10193     10196     10199
     10194     10193     10196     10197     10194     10193     10196     10198
     10194     10193     10196     10199     10195     10193     10196     10197
     10195     10193     10196     10198     10195     10193     10196     10199
     10193     10196     10199     10200     10193     10196     10199     10201
     10193     10196     10199     10202     10197     10196     10199     10200
     10197     10196     10199     10201     10197     10196     10199     10202
     10198     10196     10199     10200     10198     10196     10199     10201
     10198     10196     10199     10202     10196     10199     10202     10205
     10196     10199     10202     10203     10196     10199     10202     10204
     10200     10199     10202     10205     10200     10199     10202     10203
     10200     10199     10202     10204     10201     10199     10202     10205
     10201     10199     10202     10203     10201     10199     10202     10204
     10206     10205     10202     10199     10207     10205     10202     10199
     10206     10205     10202     10203     10207     10205     10202     10203
     10206     10205     10202     10204     10207     10205     10202     10204
     10202     10205     10207     10208     10206     10205     10207     10208
     10205     10207     10208     10209     10205     10207     10208     10210
     10205     10207     10208     10211     10207     10208     10211     10212
     10207     10208     10211     10213     10207     10208     10211     10240
     10209     10208     10211     10212     10209     10208     10211     10213
     10209     10208     10211     10240     10210     10208     10211     10212
     10210     10208     10211     10213     10210     10208     10211     10240
     10208     10211     10213     10214     10208     10211     10213     10215
     10208     10211     10213     10216     10208     10211     10240     10241
     10212     10211     10213     10214     10212     10211     10213     10215
     10212     10211     10213     10216     10212     10211     10240     10241
     10214     10213     10211     10240     10215     10213     10211     10240
     10216     10213     10211     10240     10213     10211     10240     10241
     10211     10213     10216     10217     10214     10213     10216     10217
     10215     10213     10216     10217     10213     10216     10217     10218
     10213     10216     10217     10238     10213     10216     10217     10239
     10216     10217     10218     10219     10219     10218     10217     10238
     10219     10218     10217     10239     10217     10218     10219     10220
     10217     10218     10219     10221     10217     10218     10219     10222
     10218     10219     10222     10223     10218     10219     10222     10224
     10218     10219     10222     10225     10220     10219     10222     10223
     10220     10219     10222     10224     10220     10219     10222     10225
     10221     10219     10222     10223     10221     10219     10222     10224
     10221     10219     10222     10225     10219     10222     10225     10226
     10219     10222     10225     10230     10219     10222     10225     10234
     10223     10222     10225     10226     10223     10222     10225     10230
     10223     10222     10225     10234     10224     10222     10225     10226
     10224     10222     10225     10230     10224     10222     10225     10234
     10222     10225     10226     10227     10222     10225     10226     10228
     10222     10225     10226     10229     10222     10225     10230     10231
     10222     10225     10230     10232     10222     10225     10230     10233
     10222     10225     10234     10235     10222     10225     10234     10236
     10222     10225     10234     10237     10227     10226     10225     10230
     10228     10226     10225     10230     10229     10226     10225     10230
     10226     10225     10230     10231     10226     10225     10230     10232
     10226     10225     10230     10233     10227     10226     10225     10234
     10228     10226     10225     10234     10229     10226     10225     10234
     10226     10225     10234     10235     10226     10225     10234     10236
     10226     10225     10234     10237     10231     10230     10225     10234
     10232     10230     10225     10234     10233     10230     10225     10234
     10230     10225     10234     10235     10230     10225     10234     10236
     10230     10225     10234     10237     10211     10240     10241     10243
     10211     10240     10241     10242     10244     10243     10241     10240
     10245     10243     10241     10240     10246     10243     10241     10240
     10244     10243     10241     10242     10245     10243     10241     10242
     10246     10243     10241     10242     10241     10243     10246     10247
     10241     10243     10246     10248     10241     10243     10246     10249
     10244     10243     10246     10247     10244     10243     10246     10248
     10244     10243     10246     10249     10245     10243     10246     10247
     10245     10243     10246     10248     10245     10243     10246     10249
     10243     10246     10249     10250     10243     10246     10249     10251
     10243     10246     10249     10252     10247     10246     10249     10250
     10247     10246     10249     10251     10247     10246     10249     10252
     10248     10246     10249     10250     10248     10246     10249     10251
     10248     10246     10249     10252     10246     10249     10252     10253
     10246     10249     10252     10254     10246     10249     10252     10255
     10250     10249     10252     10253     10250     10249     10252     10254
     10250     10249     10252     10255     10251     10249     10252     10253
     10251     10249     10252     10254     10251     10249     10252     10255
     10249     10252     10255     10256     10249     10252     10255     10257
     10249     10252     10255     10258     10253     10252     10255     10256
     10253     10252     10255     10257     10253     10252     10255     10258
     10254     10252     10255     10256     10254     10252     10255     10257
     10254     10252     10255     10258     10252     10255     10258     10259
     10252     10255     10258     10260     10252     10255     10258     10261
     10256     10255     10258     10259     10256     10255     10258     10260
     10256     10255     10258     10261     10257     10255     10258     10259
     10257     10255     10258     10260     10257     10255     10258     10261
     10255     10258     10261     10262     10255     10258     10261     10263
     10255     10258     10261     10264     10259     10258     10261     10262
     10259     10258     10261     10263     10259     10258     10261     10264
     10260     10258     10261     10262     10260     10258     10261     10263
     10260     10258     10261     10264     10258     10261     10264     10265
     10258     10261     10264     10266     10262     10261     10264     10265
     10262     10261     10264     10266     10263     10261     10264     10265
     10263     10261     10264     10266     10261     10264     10266     10267
     10261     10264     10266     10268     10265     10264     10266     10267
     10265     10264     10266     10268     10264     10266     10268     10269
     10264     10266     10268     10270     10264     10266     10268     10271
     10267     10266     10268     10269     10267     10266     10268     10270
     10267     10266     10268     10271     10266     10268     10271     10272
     10266     10268     10271     10273     10266     10268     10271     10274
     10269     10268     10271     10272     10269     10268     10271     10273
     10269     10268     10271     10274     10270     10268     10271     10272
     10270     10268     10271     10273     10270     10268     10271     10274
     10268     10271     10274     10275     10268     10271     10274     10276
     10268     10271     10274     10277     10272     10271     10274     10275
     10272     10271     10274     10276     10272     10271     10274     10277
     10273     10271     10274     10275     10273     10271     10274     10276
     10273     10271     10274     10277     10271     10274     10277     10278
     10271     10274     10277     10279     10271     10274     10277     10280
     10275     10274     10277     10278     10275     10274     10277     10279
     10275     10274     10277     10280     10276     10274     10277     10278
     10276     10274     10277     10279     10276     10274     10277     10280
     10274     10277     10280     10281     10274     10277     10280     10282
     10274     10277     10280     10283     10278     10277     10280     10281
     10278     10277     10280     10282     10278     10277     10280     10283
     10279     10277     10280     10281     10279     10277     10280     10282
     10279     10277     10280     10283     10277     10280     10283     10284
     10277     10280     10283     10285     10277     10280     10283     10286
     10281     10280     10283     10284     10281     10280     10283     10285
     10281     10280     10283     10286     10282     10280     10283     10284
     10282     10280     10283     10285     10282     10280     10283     10286
     10280     10283     10286     10287     10280     10283     10286     10288
     10280     10283     10286     10289     10284     10283     10286     10287
     10284     10283     10286     10288     10284     10283     10286     10289
     10285     10283     10286     10287     10285     10283     10286     10288
     10285     10283     10286     10289     10283     10286     10289     10290
     10283     10286     10289     10291     10283     10286     10289     10292
     10287     10286     10289     10290     10287     10286     10289     10291
     10287     10286     10289     10292     10288     10286     10289     10290
     10288     10286     10289     10291     10288     10286     10289     10292
     10294     10293     10297     10298     10294     10293     10297     10299
     10294     10293     10297     10300     10295     10293     10297     10298
     10295     10293     10297     10299     10295     10293     10297     10300
     10296     10293     10297     10298     10296     10293     10297     10299
     10296     10293     10297     10300     10293     10297     10300     10301
     10293     10297     10300     10302     10293     10297     10300     10303
     10298     10297     10300     10301     10298     10297     10300     10302
     10298     10297     10300     10303     10299     10297     10300     10301
     10299     10297     10300     10302     10299     10297     10300     10303
     10297     10300     10303     10304     10297     10300     10303     10305
     10297     10300     10303     10306     10301     10300     10303     10304
     10301     10300     10303     10305     10301     10300     10303     10306
     10302     10300     10303     10304     10302     10300     10303     10305
     10302     10300     10303     10306     10300     10303     10306     10307
     10300     10303     10306     10308     10300     10303     10306     10309
     10304     10303     10306     10307     10304     10303     10306     10308
     10304     10303     10306     10309     10305     10303     10306     10307
     10305     10303     10306     10308     10305     10303     10306     10309
     10303     10306     10309     10310     10303     10306     10309     10311
     10303     10306     10309     10312     10307     10306     10309     10310
     10307     10306     10309     10311     10307     10306     10309     10312
     10308     10306     10309     10310     10308     10306     10309     10311
     10308     10306     10309     10312     10306     10309     10312     10313
     10306     10309     10312     10314     10306     10309     10312     10315
     10310     10309     10312     10313     10310     10309     10312     10314
     10310     10309     10312     10315     10311     10309     10312     10313
     10311     10309     10312     10314     10311     10309     10312     10315
     10309     10312     10315     10316     10309     10312     10315     10317
     10309     10312     10315     10318     10313     10312     10315     10316
     10313     10312     10315     10317     10313     10312     10315     10318
     10314     10312     10315     10316     10314     10312     10315     10317
     10314     10312     10315     10318     10312     10315     10318     10319
     10312     10315     10318     10320     10312     10315     10318     10321
     10316     10315     10318     10319     10316     10315     10318     10320
     10316     10315     10318     10321     10317     10315     10318     10319
     10317     10315     10318     10320     10317     10315     10318     10321
     10315     10318     10321     10322     10315     10318     10321     10323
     10315     10318     10321     10324     10319     10318     10321     10322
     10319     10318     10321     10323     10319     10318     10321     10324
     10320     10318     10321     10322     10320     10318     10321     10323
     10320     10318     10321     10324     10318     10321     10324     10325
     10318     10321     10324     10326     10318     10321     10324     10327
     10322     10321     10324     10325     10322     10321     10324     10326
     10322     10321     10324     10327     10323     10321     10324     10325
     10323     10321     10324     10326     10323     10321     10324     10327
     10321     10324     10327     10328     10321     10324     10327     10329
     10321     10324     10327     10330     10325     10324     10327     10328
     10325     10324     10327     10329     10325     10324     10327     10330
     10326     10324     10327     10328     10326     10324     10327     10329
     10326     10324     10327     10330     10324     10327     10330     10331
     10324     10327     10330     10332     10324     10327     10330     10333
     10328     10327     10330     10331     10328     10327     10330     10332
     10328     10327     10330     10333     10329     10327     10330     10331
     10329     10327     10330     10332     10329     10327     10330     10333
     10327     10330     10333     10334     10327     10330     10333     10335
     10327     10330     10333     10336     10331     10330     10333     10334
     10331     10330     10333     10335     10331     10330     10333     10336
     10332     10330     10333     10334     10332     10330     10333     10335
     10332     10330     10333     10336     10330     10333     10336     10339
     10330     10333     10336     10337     10330     10333     10336     10338
     10334     10333     10336     10339     10334     10333     10336     10337
     10334     10333     10336     10338     10335     10333     10336     10339
     10335     10333     10336     10337     10335     10333     10336     10338
     10340     10339     10336     10333     10341     10339     10336     10333
     10340     10339     10336     10337     10341     10339     10336     10337
     10340     10339     10336     10338     10341     10339     10336     10338
     10336     10339     10341     10342     10340     10339     10341     10342
     10339     10341     10342     10343     10339     10341     10342     10344
     10339     10341     10342     10345     10341     10342     10345     10346
     10341     10342     10345     10347     10341     10342     10345     10374
     10343     10342     10345     10346     10343     10342     10345     10347
     10343     10342     10345     10374     10344     10342     10345     10346
     10344     10342     10345     10347     10344     10342     10345     10374
     10342     10345     10347     10348     10342     10345     10347     10349
     10342     10345     10347     10350     10342     10345     10374     10375
     10346     10345     10347     10348     10346     10345     10347     10349
     10346     10345     10347     10350     10346     10345     10374     10375
     10348     10347     10345     10374     10349     10347     10345     10374
     10350     10347     10345     10374     10347     10345     10374     10375
     10345     10347     10350     10351     10348     10347     10350     10351
     10349     10347     10350     10351     10347     10350     10351     10352
     10347     10350     10351     10372     10347     10350     10351     10373
     10350     10351     10352     10353     10353     10352     10351     10372
     10353     10352     10351     10373     10351     10352     10353     10354
     10351     10352     10353     10355     10351     10352     10353     10356
     10352     10353     10356     10357     10352     10353     10356     10358
     10352     10353     10356     10359     10354     10353     10356     10357
     10354     10353     10356     10358     10354     10353     10356     10359
     10355     10353     10356     10357     10355     10353     10356     10358
     10355     10353     10356     10359     10353     10356     10359     10360
     10353     10356     10359     10364     10353     10356     10359     10368
     10357     10356     10359     10360     10357     10356     10359     10364
     10357     10356     10359     10368     10358     10356     10359     10360
     10358     10356     10359     10364     10358     10356     10359     10368
     10356     10359     10360     10361     10356     10359     10360     10362
     10356     10359     10360     10363     10356     10359     10364     10365
     10356     10359     10364     10366     10356     10359     10364     10367
     10356     10359     10368     10369     10356     10359     10368     10370
     10356     10359     10368     10371     10361     10360     10359     10364
     10362     10360     10359     10364     10363     10360     10359     10364
     10360     10359     10364     10365     10360     10359     10364     10366
     10360     10359     10364     10367     10361     10360     10359     10368
     10362     10360     10359     10368     10363     10360     10359     10368
     10360     10359     10368     10369     10360     10359     10368     10370
     10360     10359     10368     10371     10365     10364     10359     10368
     10366     10364     10359     10368     10367     10364     10359     10368
     10364     10359     10368     10369     10364     10359     10368     10370
     10364     10359     10368     10371     10345     10374     10375     10377
     10345     10374     10375     10376     10378     10377     10375     10374
     10379     10377     10375     10374     10380     10377     10375     10374
     10378     10377     10375     10376     10379     10377     10375     10376
     10380     10377     10375     10376     10375     10377     10380     10381
     10375     10377     10380     10382     10375     10377     10380     10383
     10378     10377     10380     10381     10378     10377     10380     10382
     10378     10377     10380     10383     10379     10377     10380     10381
     10379     10377     10380     10382     10379     10377     10380     10383
     10377     10380     10383     10384     10377     10380     10383     10385
     10377     10380     10383     10386     10381     10380     10383     10384
     10381     10380     10383     10385     10381     10380     10383     10386
     10382     10380     10383     10384     10382     10380     10383     10385
     10382     10380     10383     10386     10380     10383     10386     10387
     10380     10383     10386     10388     10380     10383     10386     10389
     10384     10383     10386     10387     10384     10383     10386     10388
     10384     10383     10386     10389     10385     10383     10386     10387
     10385     10383     10386     10388     10385     10383     10386     10389
     10383     10386     10389     10390     10383     10386     10389     10391
     10383     10386     10389     10392     10387     10386     10389     10390
     10387     10386     10389     10391     10387     10386     10389     10392
     10388     10386     10389     10390     10388     10386     10389     10391
     10388     10386     10389     10392     10386     10389     10392     10393
     10386     10389     10392     10394     10386     10389     10392     10395
     10390     10389     10392     10393     10390     10389     10392     10394
     10390     10389     10392     10395     10391     10389     10392     10393
     10391     10389     10392     10394     10391     10389     10392     10395
     10389     10392     10395     10396     10389     10392     10395     10397
     10389     10392     10395     10398     10393     10392     10395     10396
     10393     10392     10395     10397     10393     10392     10395     10398
     10394     10392     10395     10396     10394     10392     10395     10397
     10394     10392     10395     10398     10392     10395     10398     10399
     10392     10395     10398     10400     10396     10395     10398     10399
     10396     10395     10398     10400     10397     10395     10398     10399
     10397     10395     10398     10400     10395     10398     10400     10401
     10395     10398     10400     10402     10399     10398     10400     10401
     10399     10398     10400     10402     10398     10400     10402     10403
     10398     10400     10402     10404     10398     10400     10402     10405
     10401     10400     10402     10403     10401     10400     10402     10404
     10401     10400     10402     10405     10400     10402     10405     10406
     10400     10402     10405     10407     10400     10402     10405     10408
     10403     10402     10405     10406     10403     10402     10405     10407
     10403     10402     10405     10408     10404     10402     10405     10406
     10404     10402     10405     10407     10404     10402     10405     10408
     10402     10405     10408     10409     10402     10405     10408     10410
     10402     10405     10408     10411     10406     10405     10408     10409
     10406     10405     10408     10410     10406     10405     10408     10411
     10407     10405     10408     10409     10407     10405     10408     10410
     10407     10405     10408     10411     10405     10408     10411     10412
     10405     10408     10411     10413     10405     10408     10411     10414
     10409     10408     10411     10412     10409     10408     10411     10413
     10409     10408     10411     10414     10410     10408     10411     10412
     10410     10408     10411     10413     10410     10408     10411     10414
     10408     10411     10414     10415     10408     10411     10414     10416
     10408     10411     10414     10417     10412     10411     10414     10415
     10412     10411     10414     10416     10412     10411     10414     10417
     10413     10411     10414     10415     10413     10411     10414     10416
     10413     10411     10414     10417     10411     10414     10417     10418
     10411     10414     10417     10419     10411     10414     10417     10420
     10415     10414     10417     10418     10415     10414     10417     10419
     10415     10414     10417     10420     10416     10414     10417     10418
     10416     10414     10417     10419     10416     10414     10417     10420
     10414     10417     10420     10421     10414     10417     10420     10422
     10414     10417     10420     10423     10418     10417     10420     10421
     10418     10417     10420     10422     10418     10417     10420     10423
     10419     10417     10420     10421     10419     10417     10420     10422
     10419     10417     10420     10423     10417     10420     10423     10424
     10417     10420     10423     10425     10417     10420     10423     10426
     10421     10420     10423     10424     10421     10420     10423     10425
     10421     10420     10423     10426     10422     10420     10423     10424
     10422     10420     10423     10425     10422     10420     10423     10426
     10428     10427     10431     10432     10428     10427     10431     10433
     10428     10427     10431     10434     10429     10427     10431     10432
     10429     10427     10431     10433     10429     10427     10431     10434
     10430     10427     10431     10432     10430     10427     10431     10433
     10430     10427     10431     10434     10427     10431     10434     10435
     10427     10431     10434     10436     10427     10431     10434     10437
     10432     10431     10434     10435     10432     10431     10434     10436
     10432     10431     10434     10437     10433     10431     10434     10435
     10433     10431     10434     10436     10433     10431     10434     10437
     10431     10434     10437     10438     10431     10434     10437     10439
     10431     10434     10437     10440     10435     10434     10437     10438
     10435     10434     10437     10439     10435     10434     10437     10440
     10436     10434     10437     10438     10436     10434     10437     10439
     10436     10434     10437     10440     10434     10437     10440     10441
     10434     10437     10440     10442     10434     10437     10440     10443
     10438     10437     10440     10441     10438     10437     10440     10442
     10438     10437     10440     10443     10439     10437     10440     10441
     10439     10437     10440     10442     10439     10437     10440     10443
     10437     10440     10443     10444     10437     10440     10443     10445
     10437     10440     10443     10446     10441     10440     10443     10444
     10441     10440     10443     10445     10441     10440     10443     10446
     10442     10440     10443     10444     10442     10440     10443     10445
     10442     10440     10443     10446     10440     10443     10446     10447
     10440     10443     10446     10448     10440     10443     10446     10449
     10444     10443     10446     10447     10444     10443     10446     10448
     10444     10443     10446     10449     10445     10443     10446     10447
     10445     10443     10446     10448     10445     10443     10446     10449
     10443     10446     10449     10450     10443     10446     10449     10451
     10443     10446     10449     10452     10447     10446     10449     10450
     10447     10446     10449     10451     10447     10446     10449     10452
     10448     10446     10449     10450     10448     10446     10449     10451
     10448     10446     10449     10452     10446     10449     10452     10453
     10446     10449     10452     10454     10446     10449     10452     10455
     10450     10449     10452     10453     10450     10449     10452     10454
     10450     10449     10452     10455     10451     10449     10452     10453
     10451     10449     10452     10454     10451     10449     10452     10455
     10449     10452     10455     10456     10449     10452     10455     10457
     10449     10452     10455     10458     10453     10452     10455     10456
     10453     10452     10455     10457     10453     10452     10455     10458
     10454     10452     10455     10456     10454     10452     10455     10457
     10454     10452     10455     10458     10452     10455     10458     10459
     10452     10455     10458     10460     10452     10455     10458     10461
     10456     10455     10458     10459     10456     10455     10458     10460
     10456     10455     10458     10461     10457     10455     10458     10459
     10457     10455     10458     10460     10457     10455     10458     10461
     10455     10458     10461     10462     10455     10458     10461     10463
     10455     10458     10461     10464     10459     10458     10461     10462
     10459     10458     10461     10463     10459     10458     10461     10464
     10460     10458     10461     10462     10460     10458     10461     10463
     10460     10458     10461     10464     10458     10461     10464     10465
     10458     10461     10464     10466     10458     10461     10464     10467
     10462     10461     10464     10465     10462     10461     10464     10466
     10462     10461     10464     10467     10463     10461     10464     10465
     10463     10461     10464     10466     10463     10461     10464     10467
     10461     10464     10467     10468     10461     10464     10467     10469
     10461     10464     10467     10470     10465     10464     10467     10468
     10465     10464     10467     10469     10465     10464     10467     10470
     10466     10464     10467     10468     10466     10464     10467     10469
     10466     10464     10467     10470     10464     10467     10470     10473
     10464     10467     10470     10471     10464     10467     10470     10472
     10468     10467     10470     10473     10468     10467     10470     10471
     10468     10467     10470     10472     10469     10467     10470     10473
     10469     10467     10470     10471     10469     10467     10470     10472
     10474     10473     10470     10467     10475     10473     10470     10467
     10474     10473     10470     10471     10475     10473     10470     10471
     10474     10473     10470     10472     10475     10473     10470     10472
     10470     10473     10475     10476     10474     10473     10475     10476
     10473     10475     10476     10477     10473     10475     10476     10478
     10473     10475     10476     10479     10475     10476     10479     10480
     10475     10476     10479     10481     10475     10476     10479     10508
     10477     10476     10479     10480     10477     10476     10479     10481
     10477     10476     10479     10508     10478     10476     10479     10480
     10478     10476     10479     10481     10478     10476     10479     10508
     10476     10479     10481     10482     10476     10479     10481     10483
     10476     10479     10481     10484     10476     10479     10508     10509
     10480     10479     10481     10482     10480     10479     10481     10483
     10480     10479     10481     10484     10480     10479     10508     10509
     10482     10481     10479     10508     10483     10481     10479     10508
     10484     10481     10479     10508     10481     10479     10508     10509
     10479     10481     10484     10485     10482     10481     10484     10485
     10483     10481     10484     10485     10481     10484     10485     10486
     10481     10484     10485     10506     10481     10484     10485     10507
     10484     10485     10486     10487     10487     10486     10485     10506
     10487     10486     10485     10507     10485     10486     10487     10488
     10485     10486     10487     10489     10485     10486     10487     10490
     10486     10487     10490     10491     10486     10487     10490     10492
     10486     10487     10490     10493     10488     10487     10490     10491
     10488     10487     10490     10492     10488     10487     10490     10493
     10489     10487     10490     10491     10489     10487     10490     10492
     10489     10487     10490     10493     10487     10490     10493     10494
     10487     10490     10493     10498     10487     10490     10493     10502
     10491     10490     10493     10494     10491     10490     10493     10498
     10491     10490     10493     10502     10492     10490     10493     10494
     10492     10490     10493     10498     10492     10490     10493     10502
     10490     10493     10494     10495     10490     10493     10494     10496
     10490     10493     10494     10497     10490     10493     10498     10499
     10490     10493     10498     10500     10490     10493     10498     10501
     10490     10493     10502     10503     10490     10493     10502     10504
     10490     10493     10502     10505     10495     10494     10493     10498
     10496     10494     10493     10498     10497     10494     10493     10498
     10494     10493     10498     10499     10494     10493     10498     10500
     10494     10493     10498     10501     10495     10494     10493     10502
     10496     10494     10493     10502     10497     10494     10493     10502
     10494     10493     10502     10503     10494     10493     10502     10504
     10494     10493     10502     10505     10499     10498     10493     10502
     10500     10498     10493     10502     10501     10498     10493     10502
     10498     10493     10502     10503     10498     10493     10502     10504
     10498     10493     10502     10505     10479     10508     10509     10511
     10479     10508     10509     10510     10512     10511     10509     10508
     10513     10511     10509     10508     10514     10511     10509     10508
     10512     10511     10509     10510     10513     10511     10509     10510
     10514     10511     10509     10510     10509     10511     10514     10515
     10509     10511     10514     10516     10509     10511     10514     10517
     10512     10511     10514     10515     10512     10511     10514     10516
     10512     10511     10514     10517     10513     10511     10514     10515
     10513     10511     10514     10516     10513     10511     10514     10517
     10511     10514     10517     10518     10511     10514     10517     10519
     10511     10514     10517     10520     10515     10514     10517     10518
     10515     10514     10517     10519     10515     10514     10517     10520
     10516     10514     10517     10518     10516     10514     10517     10519
     10516     10514     10517     10520     10514     10517     10520     10521
     10514     10517     10520     10522     10514     10517     10520     10523
     10518     10517     10520     10521     10518     10517     10520     10522
     10518     10517     10520     10523     10519     10517     10520     10521
     10519     10517     10520     10522     10519     10517     10520     10523
     10517     10520     10523     10524     10517     10520     10523     10525
     10517     10520     10523     10526     10521     10520     10523     10524
     10521     10520     10523     10525     10521     10520     10523     10526
     10522     10520     10523     10524     10522     10520     10523     10525
     10522     10520     10523     10526     10520     10523     10526     10527
     10520     10523     10526     10528     10520     10523     10526     10529
     10524     10523     10526     10527     10524     10523     10526     10528
     10524     10523     10526     10529     10525     10523     10526     10527
     10525     10523     10526     10528     10525     10523     10526     10529
     10523     10526     10529     10530     10523     10526     10529     10531
     10523     10526     10529     10532     10527     10526     10529     10530
     10527     10526     10529     10531     10527     10526     10529     10532
     10528     10526     10529     10530     10528     10526     10529     10531
     10528     10526     10529     10532     10526     10529     10532     10533
     10526     10529     10532     10534     10530     10529     10532     10533
     10530     10529     10532     10534     10531     10529     10532     10533
     10531     10529     10532     10534     10529     10532     10534     10535
     10529     10532     10534     10536     10533     10532     10534     10535
     10533     10532     10534     10536     10532     10534     10536     10537
     10532     10534     10536     10538     10532     10534     10536     10539
     10535     10534     10536     10537     10535     10534     10536     10538
     10535     10534     10536     10539     10534     10536     10539     10540
     10534     10536     10539     10541     10534     10536     10539     10542
     10537     10536     10539     10540     10537     10536     10539     10541
     10537     10536     10539     10542     10538     10536     10539     10540
     10538     10536     10539     10541     10538     10536     10539     10542
     10536     10539     10542     10543     10536     10539     10542     10544
     10536     10539     10542     10545     10540     10539     10542     10543
     10540     10539     10542     10544     10540     10539     10542     10545
     10541     10539     10542     10543     10541     10539     10542     10544
     10541     10539     10542     10545     10539     10542     10545     10546
     10539     10542     10545     10547     10539     10542     10545     10548
     10543     10542     10545     10546     10543     10542     10545     10547
     10543     10542     10545     10548     10544     10542     10545     10546
     10544     10542     10545     10547     10544     10542     10545     10548
     10542     10545     10548     10549     10542     10545     10548     10550
     10542     10545     10548     10551     10546     10545     10548     10549
     10546     10545     10548     10550     10546     10545     10548     10551
     10547     10545     10548     10549     10547     10545     10548     10550
     10547     10545     10548     10551     10545     10548     10551     10552
     10545     10548     10551     10553     10545     10548     10551     10554
     10549     10548     10551     10552     10549     10548     10551     10553
     10549     10548     10551     10554     10550     10548     10551     10552
     10550     10548     10551     10553     10550     10548     10551     10554
     10548     10551     10554     10555     10548     10551     10554     10556
     10548     10551     10554     10557     10552     10551     10554     10555
     10552     10551     10554     10556     10552     10551     10554     10557
     10553     10551     10554     10555     10553     10551     10554     10556
     10553     10551     10554     10557     10551     10554     10557     10558
     10551     10554     10557     10559     10551     10554     10557     10560
     10555     10554     10557     10558     10555     10554     10557     10559
     10555     10554     10557     10560     10556     10554     10557     10558
     10556     10554     10557     10559     10556     10554     10557     10560
     10562     10561     10565     10566     10562     10561     10565     10567
     10562     10561     10565     10568     10563     10561     10565     10566
     10563     10561     10565     10567     10563     10561     10565     10568
     10564     10561     10565     10566     10564     10561     10565     10567
     10564     10561     10565     10568     10561     10565     10568     10569
     10561     10565     10568     10570     10561     10565     10568     10571
     10566     10565     10568     10569     10566     10565     10568     10570
     10566     10565     10568     10571     10567     10565     10568     10569
     10567     10565     10568     10570     10567     10565     10568     10571
     10565     10568     10571     10572     10565     10568     10571     10573
     10565     10568     10571     10574     10569     10568     10571     10572
     10569     10568     10571     10573     10569     10568     10571     10574
     10570     10568     10571     10572     10570     10568     10571     10573
     10570     10568     10571     10574     10568     10571     10574     10575
     10568     10571     10574     10576     10568     10571     10574     10577
     10572     10571     10574     10575     10572     10571     10574     10576
     10572     10571     10574     10577     10573     10571     10574     10575
     10573     10571     10574     10576     10573     10571     10574     10577
     10571     10574     10577     10578     10571     10574     10577     10579
     10571     10574     10577     10580     10575     10574     10577     10578
     10575     10574     10577     10579     10575     10574     10577     10580
     10576     10574     10577     10578     10576     10574     10577     10579
     10576     10574     10577     10580     10574     10577     10580     10581
     10574     10577     10580     10582     10574     10577     10580     10583
     10578     10577     10580     10581     10578     10577     10580     10582
     10578     10577     10580     10583     10579     10577     10580     10581
     10579     10577     10580     10582     10579     10577     10580     10583
     10577     10580     10583     10584     10577     10580     10583     10585
     10577     10580     10583     10586     10581     10580     10583     10584
     10581     10580     10583     10585     10581     10580     10583     10586
     10582     10580     10583     10584     10582     10580     10583     10585
     10582     10580     10583     10586     10580     10583     10586     10587
     10580     10583     10586     10588     10580     10583     10586     10589
     10584     10583     10586     10587     10584     10583     10586     10588
     10584     10583     10586     10589     10585     10583     10586     10587
     10585     10583     10586     10588     10585     10583     10586     10589
     10583     10586     10589     10590     10583     10586     10589     10591
     10583     10586     10589     10592     10587     10586     10589     10590
     10587     10586     10589     10591     10587     10586     10589     10592
     10588     10586     10589     10590     10588     10586     10589     10591
     10588     10586     10589     10592     10586     10589     10592     10593
     10586     10589     10592     10594     10586     10589     10592     10595
     10590     10589     10592     10593     10590     10589     10592     10594
     10590     10589     10592     10595     10591     10589     10592     10593
     10591     10589     10592     10594     10591     10589     10592     10595
     10589     10592     10595     10596     10589     10592     10595     10597
     10589     10592     10595     10598     10593     10592     10595     10596
     10593     10592     10595     10597     10593     10592     10595     10598
     10594     10592     10595     10596     10594     10592     10595     10597
     10594     10592     10595     10598     10592     10595     10598     10599
     10592     10595     10598     10600     10592     10595     10598     10601
     10596     10595     10598     10599     10596     10595     10598     10600
     10596     10595     10598     10601     10597     10595     10598     10599
     10597     10595     10598     10600     10597     10595     10598     10601
     10595     10598     10601     10602     10595     10598     10601     10603
     10595     10598     10601     10604     10599     10598     10601     10602
     10599     10598     10601     10603     10599     10598     10601     10604
     10600     10598     10601     10602     10600     10598     10601     10603
     10600     10598     10601     10604     10598     10601     10604     10607
     10598     10601     10604     10605     10598     10601     10604     10606
     10602     10601     10604     10607     10602     10601     10604     10605
     10602     10601     10604     10606     10603     10601     10604     10607
     10603     10601     10604     10605     10603     10601     10604     10606
     10608     10607     10604     10601     10609     10607     10604     10601
     10608     10607     10604     10605     10609     10607     10604     10605
     10608     10607     10604     10606     10609     10607     10604     10606
     10604     10607     10609     10610     10608     10607     10609     10610
     10607     10609     10610     10611     10607     10609     10610     10612
     10607     10609     10610     10613     10609     10610     10613     10614
     10609     10610     10613     10615     10609     10610     10613     10642
     10611     10610     10613     10614     10611     10610     10613     10615
     10611     10610     10613     10642     10612     10610     10613     10614
     10612     10610     10613     10615     10612     10610     10613     10642
     10610     10613     10615     10616     10610     10613     10615     10617
     10610     10613     10615     10618     10610     10613     10642     10643
     10614     10613     10615     10616     10614     10613     10615     10617
     10614     10613     10615     10618     10614     10613     10642     10643
     10616     10615     10613     10642     10617     10615     10613     10642
     10618     10615     10613     10642     10615     10613     10642     10643
     10613     10615     10618     10619     10616     10615     10618     10619
     10617     10615     10618     10619     10615     10618     10619     10620
     10615     10618     10619     10640     10615     10618     10619     10641
     10618     10619     10620     10621     10621     10620     10619     10640
     10621     10620     10619     10641     10619     10620     10621     10622
     10619     10620     10621     10623     10619     10620     10621     10624
     10620     10621     10624     10625     10620     10621     10624     10626
     10620     10621     10624     10627     10622     10621     10624     10625
     10622     10621     10624     10626     10622     10621     10624     10627
     10623     10621     10624     10625     10623     10621     10624     10626
     10623     10621     10624     10627     10621     10624     10627     10628
     10621     10624     10627     10632     10621     10624     10627     10636
     10625     10624     10627     10628     10625     10624     10627     10632
     10625     10624     10627     10636     10626     10624     10627     10628
     10626     10624     10627     10632     10626     10624     10627     10636
     10624     10627     10628     10629     10624     10627     10628     10630
     10624     10627     10628     10631     10624     10627     10632     10633
     10624     10627     10632     10634     10624     10627     10632     10635
     10624     10627     10636     10637     10624     10627     10636     10638
     10624     10627     10636     10639     10629     10628     10627     10632
     10630     10628     10627     10632     10631     10628     10627     10632
     10628     10627     10632     10633     10628     10627     10632     10634
     10628     10627     10632     10635     10629     10628     10627     10636
     10630     10628     10627     10636     10631     10628     10627     10636
     10628     10627     10636     10637     10628     10627     10636     10638
     10628     10627     10636     10639     10633     10632     10627     10636
     10634     10632     10627     10636     10635     10632     10627     10636
     10632     10627     10636     10637     10632     10627     10636     10638
     10632     10627     10636     10639     10613     10642     10643     10645
     10613     10642     10643     10644     10646     10645     10643     10642
     10647     10645     10643     10642     10648     10645     10643     10642
     10646     10645     10643     10644     10647     10645     10643     10644
     10648     10645     10643     10644     10643     10645     10648     10649
     10643     10645     10648     10650     10643     10645     10648     10651
     10646     10645     10648     10649     10646     10645     10648     10650
     10646     10645     10648     10651     10647     10645     10648     10649
     10647     10645     10648     10650     10647     10645     10648     10651
     10645     10648     10651     10652     10645     10648     10651     10653
     10645     10648     10651     10654     10649     10648     10651     10652
     10649     10648     10651     10653     10649     10648     10651     10654
     10650     10648     10651     10652     10650     10648     10651     10653
     10650     10648     10651     10654     10648     10651     10654     10655
     10648     10651     10654     10656     10648     10651     10654     10657
     10652     10651     10654     10655     10652     10651     10654     10656
     10652     10651     10654     10657     10653     10651     10654     10655
     10653     10651     10654     10656     10653     10651     10654     10657
     10651     10654     10657     10658     10651     10654     10657     10659
     10651     10654     10657     10660     10655     10654     10657     10658
     10655     10654     10657     10659     10655     10654     10657     10660
     10656     10654     10657     10658     10656     10654     10657     10659
     10656     10654     10657     10660     10654     10657     10660     10661
     10654     10657     10660     10662     10654     10657     10660     10663
     10658     10657     10660     10661     10658     10657     10660     10662
     10658     10657     10660     10663     10659     10657     10660     10661
     10659     10657     10660     10662     10659     10657     10660     10663
     10657     10660     10663     10664     10657     10660     10663     10665
     10657     10660     10663     10666     10661     10660     10663     10664
     10661     10660     10663     10665     10661     10660     10663     10666
     10662     10660     10663     10664     10662     10660     10663     10665
     10662     10660     10663     10666     10660     10663     10666     10667
     10660     10663     10666     10668     10664     10663     10666     10667
     10664     10663     10666     10668     10665     10663     10666     10667
     10665     10663     10666     10668     10663     10666     10668     10669
     10663     10666     10668     10670     10667     10666     10668     10669
     10667     10666     10668     10670     10666     10668     10670     10671
     10666     10668     10670     10672     10666     10668     10670     10673
     10669     10668     10670     10671     10669     10668     10670     10672
     10669     10668     10670     10673     10668     10670     10673     10674
     10668     10670     10673     10675     10668     10670     10673     10676
     10671     10670     10673     10674     10671     10670     10673     10675
     10671     10670     10673     10676     10672     10670     10673     10674
     10672     10670     10673     10675     10672     10670     10673     10676
     10670     10673     10676     10677     10670     10673     10676     10678
     10670     10673     10676     10679     10674     10673     10676     10677
     10674     10673     10676     10678     10674     10673     10676     10679
     10675     10673     10676     10677     10675     10673     10676     10678
     10675     10673     10676     10679     10673     10676     10679     10680
     10673     10676     10679     10681     10673     10676     10679     10682
     10677     10676     10679     10680     10677     10676     10679     10681
     10677     10676     10679     10682     10678     10676     10679     10680
     10678     10676     10679     10681     10678     10676     10679     10682
     10676     10679     10682     10683     10676     10679     10682     10684
     10676     10679     10682     10685     10680     10679     10682     10683
     10680     10679     10682     10684     10680     10679     10682     10685
     10681     10679     10682     10683     10681     10679     10682     10684
     10681     10679     10682     10685     10679     10682     10685     10686
     10679     10682     10685     10687     10679     10682     10685     10688
     10683     10682     10685     10686     10683     10682     10685     10687
     10683     10682     10685     10688     10684     10682     10685     10686
     10684     10682     10685     10687     10684     10682     10685     10688
     10682     10685     10688     10689     10682     10685     10688     10690
     10682     10685     10688     10691     10686     10685     10688     10689
     10686     10685     10688     10690     10686     10685     10688     10691
     10687     10685     10688     10689     10687     10685     10688     10690
     10687     10685     10688     10691     10685     10688     10691     10692
     10685     10688     10691     10693     10685     10688     10691     10694
     10689     10688     10691     10692     10689     10688     10691     10693
     10689     10688     10691     10694     10690     10688     10691     10692
     10690     10688     10691     10693     10690     10688     10691     10694
     10696     10695     10699     10700     10696     10695     10699     10701
     10696     10695     10699     10702     10697     10695     10699     10700
     10697     10695     10699     10701     10697     10695     10699     10702
     10698     10695     10699     10700     10698     10695     10699     10701
     10698     10695     10699     10702     10695     10699     10702     10703
     10695     10699     10702     10704     10695     10699     10702     10705
     10700     10699     10702     10703     10700     10699     10702     10704
     10700     10699     10702     10705     10701     10699     10702     10703
     10701     10699     10702     10704     10701     10699     10702     10705
     10699     10702     10705     10706     10699     10702     10705     10707
     10699     10702     10705     10708     10703     10702     10705     10706
     10703     10702     10705     10707     10703     10702     10705     10708
     10704     10702     10705     10706     10704     10702     10705     10707
     10704     10702     10705     10708     10702     10705     10708     10709
     10702     10705     10708     10710     10702     10705     10708     10711
     10706     10705     10708     10709     10706     10705     10708     10710
     10706     10705     10708     10711     10707     10705     10708     10709
     10707     10705     10708     10710     10707     10705     10708     10711
     10705     10708     10711     10712     10705     10708     10711     10713
     10705     10708     10711     10714     10709     10708     10711     10712
     10709     10708     10711     10713     10709     10708     10711     10714
     10710     10708     10711     10712     10710     10708     10711     10713
     10710     10708     10711     10714     10708     10711     10714     10715
     10708     10711     10714     10716     10708     10711     10714     10717
     10712     10711     10714     10715     10712     10711     10714     10716
     10712     10711     10714     10717     10713     10711     10714     10715
     10713     10711     10714     10716     10713     10711     10714     10717
     10711     10714     10717     10718     10711     10714     10717     10719
     10711     10714     10717     10720     10715     10714     10717     10718
     10715     10714     10717     10719     10715     10714     10717     10720
     10716     10714     10717     10718     10716     10714     10717     10719
     10716     10714     10717     10720     10714     10717     10720     10721
     10714     10717     10720     10722     10714     10717     10720     10723
     10718     10717     10720     10721     10718     10717     10720     10722
     10718     10717     10720     10723     10719     10717     10720     10721
     10719     10717     10720     10722     10719     10717     10720     10723
     10717     10720     10723     10724     10717     10720     10723     10725
     10717     10720     10723     10726     10721     10720     10723     10724
     10721     10720     10723     10725     10721     10720     10723     10726
     10722     10720     10723     10724     10722     10720     10723     10725
     10722     10720     10723     10726     10720     10723     10726     10727
     10720     10723     10726     10728     10720     10723     10726     10729
     10724     10723     10726     10727     10724     10723     10726     10728
     10724     10723     10726     10729     10725     10723     10726     10727
     10725     10723     10726     10728     10725     10723     10726     10729
     10723     10726     10729     10730     10723     10726     10729     10731
     10723     10726     10729     10732     10727     10726     10729     10730
     10727     10726     10729     10731     10727     10726     10729     10732
     10728     10726     10729     10730     10728     10726     10729     10731
     10728     10726     10729     10732     10726     10729     10732     10733
     10726     10729     10732     10734     10726     10729     10732     10735
     10730     10729     10732     10733     10730     10729     10732     10734
     10730     10729     10732     10735     10731     10729     10732     10733
     10731     10729     10732     10734     10731     10729     10732     10735
     10729     10732     10735     10736     10729     10732     10735     10737
     10729     10732     10735     10738     10733     10732     10735     10736
     10733     10732     10735     10737     10733     10732     10735     10738
     10734     10732     10735     10736     10734     10732     10735     10737
     10734     10732     10735     10738     10732     10735     10738     10741
     10732     10735     10738     10739     10732     10735     10738     10740
     10736     10735     10738     10741     10736     10735     10738     10739
     10736     10735     10738     10740     10737     10735     10738     10741
     10737     10735     10738     10739     10737     10735     10738     10740
     10742     10741     10738     10735     10743     10741     10738     10735
     10742     10741     10738     10739     10743     10741     10738     10739
     10742     10741     10738     10740     10743     10741     10738     10740
     10738     10741     10743     10744     10742     10741     10743     10744
     10741     10743     10744     10745     10741     10743     10744     10746
     10741     10743     10744     10747     10743     10744     10747     10748
     10743     10744     10747     10749     10743     10744     10747     10776
     10745     10744     10747     10748     10745     10744     10747     10749
     10745     10744     10747     10776     10746     10744     10747     10748
     10746     10744     10747     10749     10746     10744     10747     10776
     10744     10747     10749     10750     10744     10747     10749     10751
     10744     10747     10749     10752     10744     10747     10776     10777
     10748     10747     10749     10750     10748     10747     10749     10751
     10748     10747     10749     10752     10748     10747     10776     10777
     10750     10749     10747     10776     10751     10749     10747     10776
     10752     10749     10747     10776     10749     10747     10776     10777
     10747     10749     10752     10753     10750     10749     10752     10753
     10751     10749     10752     10753     10749     10752     10753     10754
     10749     10752     10753     10774     10749     10752     10753     10775
     10752     10753     10754     10755     10755     10754     10753     10774
     10755     10754     10753     10775     10753     10754     10755     10756
     10753     10754     10755     10757     10753     10754     10755     10758
     10754     10755     10758     10759     10754     10755     10758     10760
     10754     10755     10758     10761     10756     10755     10758     10759
     10756     10755     10758     10760     10756     10755     10758     10761
     10757     10755     10758     10759     10757     10755     10758     10760
     10757     10755     10758     10761     10755     10758     10761     10762
     10755     10758     10761     10766     10755     10758     10761     10770
     10759     10758     10761     10762     10759     10758     10761     10766
     10759     10758     10761     10770     10760     10758     10761     10762
     10760     10758     10761     10766     10760     10758     10761     10770
     10758     10761     10762     10763     10758     10761     10762     10764
     10758     10761     10762     10765     10758     10761     10766     10767
     10758     10761     10766     10768     10758     10761     10766     10769
     10758     10761     10770     10771     10758     10761     10770     10772
     10758     10761     10770     10773     10763     10762     10761     10766
     10764     10762     10761     10766     10765     10762     10761     10766
     10762     10761     10766     10767     10762     10761     10766     10768
     10762     10761     10766     10769     10763     10762     10761     10770
     10764     10762     10761     10770     10765     10762     10761     10770
     10762     10761     10770     10771     10762     10761     10770     10772
     10762     10761     10770     10773     10767     10766     10761     10770
     10768     10766     10761     10770     10769     10766     10761     10770
     10766     10761     10770     10771     10766     10761     10770     10772
     10766     10761     10770     10773     10747     10776     10777     10779
     10747     10776     10777     10778     10780     10779     10777     10776
     10781     10779     10777     10776     10782     10779     10777     10776
     10780     10779     10777     10778     10781     10779     10777     10778
     10782     10779     10777     10778     10777     10779     10782     10783
     10777     10779     10782     10784     10777     10779     10782     10785
     10780     10779     10782     10783     10780     10779     10782     10784
     10780     10779     10782     10785     10781     10779     10782     10783
     10781     10779     10782     10784     10781     10779     10782     10785
     10779     10782     10785     10786     10779     10782     10785     10787
     10779     10782     10785     10788     10783     10782     10785     10786
     10783     10782     10785     10787     10783     10782     10785     10788
     10784     10782     10785     10786     10784     10782     10785     10787
     10784     10782     10785     10788     10782     10785     10788     10789
     10782     10785     10788     10790     10782     10785     10788     10791
     10786     10785     10788     10789     10786     10785     10788     10790
     10786     10785     10788     10791     10787     10785     10788     10789
     10787     10785     10788     10790     10787     10785     10788     10791
     10785     10788     10791     10792     10785     10788     10791     10793
     10785     10788     10791     10794     10789     10788     10791     10792
     10789     10788     10791     10793     10789     10788     10791     10794
     10790     10788     10791     10792     10790     10788     10791     10793
     10790     10788     10791     10794     10788     10791     10794     10795
     10788     10791     10794     10796     10788     10791     10794     10797
     10792     10791     10794     10795     10792     10791     10794     10796
     10792     10791     10794     10797     10793     10791     10794     10795
     10793     10791     10794     10796     10793     10791     10794     10797
     10791     10794     10797     10798     10791     10794     10797     10799
     10791     10794     10797     10800     10795     10794     10797     10798
     10795     10794     10797     10799     10795     10794     10797     10800
     10796     10794     10797     10798     10796     10794     10797     10799
     10796     10794     10797     10800     10794     10797     10800     10801
     10794     10797     10800     10802     10798     10797     10800     10801
     10798     10797     10800     10802     10799     10797     10800     10801
     10799     10797     10800     10802     10797     10800     10802     10803
     10797     10800     10802     10804     10801     10800     10802     10803
     10801     10800     10802     10804     10800     10802     10804     10805
     10800     10802     10804     10806     10800     10802     10804     10807
     10803     10802     10804     10805     10803     10802     10804     10806
     10803     10802     10804     10807     10802     10804     10807     10808
     10802     10804     10807     10809     10802     10804     10807     10810
     10805     10804     10807     10808     10805     10804     10807     10809
     10805     10804     10807     10810     10806     10804     10807     10808
     10806     10804     10807     10809     10806     10804     10807     10810
     10804     10807     10810     10811     10804     10807     10810     10812
     10804     10807     10810     10813     10808     10807     10810     10811
     10808     10807     10810     10812     10808     10807     10810     10813
     10809     10807     10810     10811     10809     10807     10810     10812
     10809     10807     10810     10813     10807     10810     10813     10814
     10807     10810     10813     10815     10807     10810     10813     10816
     10811     10810     10813     10814     10811     10810     10813     10815
     10811     10810     10813     10816     10812     10810     10813     10814
     10812     10810     10813     10815     10812     10810     10813     10816
     10810     10813     10816     10817     10810     10813     10816     10818
     10810     10813     10816     10819     10814     10813     10816     10817
     10814     10813     10816     10818     10814     10813     10816     10819
     10815     10813     10816     10817     10815     10813     10816     10818
     10815     10813     10816     10819     10813     10816     10819     10820
     10813     10816     10819     10821     10813     10816     10819     10822
     10817     10816     10819     10820     10817     10816     10819     10821
     10817     10816     10819     10822     10818     10816     10819     10820
     10818     10816     10819     10821     10818     10816     10819     10822
     10816     10819     10822     10823     10816     10819     10822     10824
     10816     10819     10822     10825     10820     10819     10822     10823
     10820     10819     10822     10824     10820     10819     10822     10825
     10821     10819     10822     10823     10821     10819     10822     10824
     10821     10819     10822     10825     10819     10822     10825     10826
     10819     10822     10825     10827     10819     10822     10825     10828
     10823     10822     10825     10826     10823     10822     10825     10827
     10823     10822     10825     10828     10824     10822     10825     10826
     10824     10822     10825     10827     10824     10822     10825     10828
     10830     10829     10833     10834     10830     10829     10833     10835
     10830     10829     10833     10836     10831     10829     10833     10834
     10831     10829     10833     10835     10831     10829     10833     10836
     10832     10829     10833     10834     10832     10829     10833     10835
     10832     10829     10833     10836     10829     10833     10836     10837
     10829     10833     10836     10838     10829     10833     10836     10839
     10834     10833     10836     10837     10834     10833     10836     10838
     10834     10833     10836     10839     10835     10833     10836     10837
     10835     10833     10836     10838     10835     10833     10836     10839
     10833     10836     10839     10840     10833     10836     10839     10841
     10833     10836     10839     10842     10837     10836     10839     10840
     10837     10836     10839     10841     10837     10836     10839     10842
     10838     10836     10839     10840     10838     10836     10839     10841
     10838     10836     10839     10842     10836     10839     10842     10843
     10836     10839     10842     10844     10836     10839     10842     10845
     10840     10839     10842     10843     10840     10839     10842     10844
     10840     10839     10842     10845     10841     10839     10842     10843
     10841     10839     10842     10844     10841     10839     10842     10845
     10839     10842     10845     10846     10839     10842     10845     10847
     10839     10842     10845     10848     10843     10842     10845     10846
     10843     10842     10845     10847     10843     10842     10845     10848
     10844     10842     10845     10846     10844     10842     10845     10847
     10844     10842     10845     10848     10842     10845     10848     10849
     10842     10845     10848     10850     10842     10845     10848     10851
     10846     10845     10848     10849     10846     10845     10848     10850
     10846     10845     10848     10851     10847     10845     10848     10849
     10847     10845     10848     10850     10847     10845     10848     10851
     10845     10848     10851     10852     10845     10848     10851     10853
     10845     10848     10851     10854     10849     10848     10851     10852
     10849     10848     10851     10853     10849     10848     10851     10854
     10850     10848     10851     10852     10850     10848     10851     10853
     10850     10848     10851     10854     10848     10851     10854     10855
     10848     10851     10854     10856     10848     10851     10854     10857
     10852     10851     10854     10855     10852     10851     10854     10856
     10852     10851     10854     10857     10853     10851     10854     10855
     10853     10851     10854     10856     10853     10851     10854     10857
     10851     10854     10857     10858     10851     10854     10857     10859
     10851     10854     10857     10860     10855     10854     10857     10858
     10855     10854     10857     10859     10855     10854     10857     10860
     10856     10854     10857     10858     10856     10854     10857     10859
     10856     10854     10857     10860     10854     10857     10860     10861
     10854     10857     10860     10862     10854     10857     10860     10863
     10858     10857     10860     10861     10858     10857     10860     10862
     10858     10857     10860     10863     10859     10857     10860     10861
     10859     10857     10860     10862     10859     10857     10860     10863
     10857     10860     10863     10864     10857     10860     10863     10865
     10857     10860     10863     10866     10861     10860     10863     10864
     10861     10860     10863     10865     10861     10860     10863     10866
     10862     10860     10863     10864     10862     10860     10863     10865
     10862     10860     10863     10866     10860     10863     10866     10867
     10860     10863     10866     10868     10860     10863     10866     10869
     10864     10863     10866     10867     10864     10863     10866     10868
     10864     10863     10866     10869     10865     10863     10866     10867
     10865     10863     10866     10868     10865     10863     10866     10869
     10863     10866     10869     10870     10863     10866     10869     10871
     10863     10866     10869     10872     10867     10866     10869     10870
     10867     10866     10869     10871     10867     10866     10869     10872
     10868     10866     10869     10870     10868     10866     10869     10871
     10868     10866     10869     10872     10866     10869     10872     10875
     10866     10869     10872     10873     10866     10869     10872     10874
     10870     10869     10872     10875     10870     10869     10872     10873
     10870     10869     10872     10874     10871     10869     10872     10875
     10871     10869     10872     10873     10871     10869     10872     10874
     10876     10875     10872     10869     10877     10875     10872     10869
     10876     10875     10872     10873     10877     10875     10872     10873
     10876     10875     10872     10874     10877     10875     10872     10874
     10872     10875     10877     10878     10876     10875     10877     10878
     10875     10877     10878     10879     10875     10877     10878     10880
     10875     10877     10878     10881     10877     10878     10881     10882
     10877     10878     10881     10883     10877     10878     10881     10910
     10879     10878     10881     10882     10879     10878     10881     10883
     10879     10878     10881     10910     10880     10878     10881     10882
     10880     10878     10881     10883     10880     10878     10881     10910
     10878     10881     10883     10884     10878     10881     10883     10885
     10878     10881     10883     10886     10878     10881     10910     10911
     10882     10881     10883     10884     10882     10881     10883     10885
     10882     10881     10883     10886     10882     10881     10910     10911
     10884     10883     10881     10910     10885     10883     10881     10910
     10886     10883     10881     10910     10883     10881     10910     10911
     10881     10883     10886     10887     10884     10883     10886     10887
     10885     10883     10886     10887     10883     10886     10887     10888
     10883     10886     10887     10908     10883     10886     10887     10909
     10886     10887     10888     10889     10889     10888     10887     10908
     10889     10888     10887     10909     10887     10888     10889     10890
     10887     10888     10889     10891     10887     10888     10889     10892
     10888     10889     10892     10893     10888     10889     10892     10894
     10888     10889     10892     10895     10890     10889     10892     10893
     10890     10889     10892     10894     10890     10889     10892     10895
     10891     10889     10892     10893     10891     10889     10892     10894
     10891     10889     10892     10895     10889     10892     10895     10896
     10889     10892     10895     10900     10889     10892     10895     10904
     10893     10892     10895     10896     10893     10892     10895     10900
     10893     10892     10895     10904     10894     10892     10895     10896
     10894     10892     10895     10900     10894     10892     10895     10904
     10892     10895     10896     10897     10892     10895     10896     10898
     10892     10895     10896     10899     10892     10895     10900     10901
     10892     10895     10900     10902     10892     10895     10900     10903
     10892     10895     10904     10905     10892     10895     10904     10906
     10892     10895     10904     10907     10897     10896     10895     10900
     10898     10896     10895     10900     10899     10896     10895     10900
     10896     10895     10900     10901     10896     10895     10900     10902
     10896     10895     10900     10903     10897     10896     10895     10904
     10898     10896     10895     10904     10899     10896     10895     10904
     10896     10895     10904     10905     10896     10895     10904     10906
     10896     10895     10904     10907     10901     10900     10895     10904
     10902     10900     10895     10904     10903     10900     10895     10904
     10900     10895     10904     10905     10900     10895     10904     10906
     10900     10895     10904     10907     10881     10910     10911     10913
     10881     10910     10911     10912     10914     10913     10911     10910
     10915     10913     10911     10910     10916     10913     10911     10910
     10914     10913     10911     10912     10915     10913     10911     10912
     10916     10913     10911     10912     10911     10913     10916     10917
     10911     10913     10916     10918     10911     10913     10916     10919
     10914     10913     10916     10917     10914     10913     10916     10918
     10914     10913     10916     10919     10915     10913     10916     10917
     10915     10913     10916     10918     10915     10913     10916     10919
     10913     10916     10919     10920     10913     10916     10919     10921
     10913     10916     10919     10922     10917     10916     10919     10920
     10917     10916     10919     10921     10917     10916     10919     10922
     10918     10916     10919     10920     10918     10916     10919     10921
     10918     10916     10919     10922     10916     10919     10922     10923
     10916     10919     10922     10924     10916     10919     10922     10925
     10920     10919     10922     10923     10920     10919     10922     10924
     10920     10919     10922     10925     10921     10919     10922     10923
     10921     10919     10922     10924     10921     10919     10922     10925
     10919     10922     10925     10926     10919     10922     10925     10927
     10919     10922     10925     10928     10923     10922     10925     10926
     10923     10922     10925     10927     10923     10922     10925     10928
     10924     10922     10925     10926     10924     10922     10925     10927
     10924     10922     10925     10928     10922     10925     10928     10929
     10922     10925     10928     10930     10922     10925     10928     10931
     10926     10925     10928     10929     10926     10925     10928     10930
     10926     10925     10928     10931     10927     10925     10928     10929
     10927     10925     10928     10930     10927     10925     10928     10931
     10925     10928     10931     10932     10925     10928     10931     10933
     10925     10928     10931     10934     10929     10928     10931     10932
     10929     10928     10931     10933     10929     10928     10931     10934
     10930     10928     10931     10932     10930     10928     10931     10933
     10930     10928     10931     10934     10928     10931     10934     10935
     10928     10931     10934     10936     10932     10931     10934     10935
     10932     10931     10934     10936     10933     10931     10934     10935
     10933     10931     10934     10936     10931     10934     10936     10937
     10931     10934     10936     10938     10935     10934     10936     10937
     10935     10934     10936     10938     10934     10936     10938     10939
     10934     10936     10938     10940     10934     10936     10938     10941
     10937     10936     10938     10939     10937     10936     10938     10940
     10937     10936     10938     10941     10936     10938     10941     10942
     10936     10938     10941     10943     10936     10938     10941     10944
     10939     10938     10941     10942     10939     10938     10941     10943
     10939     10938     10941     10944     10940     10938     10941     10942
     10940     10938     10941     10943     10940     10938     10941     10944
     10938     10941     10944     10945     10938     10941     10944     10946
     10938     10941     10944     10947     10942     10941     10944     10945
     10942     10941     10944     10946     10942     10941     10944     10947
     10943     10941     10944     10945     10943     10941     10944     10946
     10943     10941     10944     10947     10941     10944     10947     10948
     10941     10944     10947     10949     10941     10944     10947     10950
     10945     10944     10947     10948     10945     10944     10947     10949
     10945     10944     10947     10950     10946     10944     10947     10948
     10946     10944     10947     10949     10946     10944     10947     10950
     10944     10947     10950     10951     10944     10947     10950     10952
     10944     10947     10950     10953     10948     10947     10950     10951
     10948     10947     10950     10952     10948     10947     10950     10953
     10949     10947     10950     10951     10949     10947     10950     10952
     10949     10947     10950     10953     10947     10950     10953     10954
     10947     10950     10953     10955     10947     10950     10953     10956
     10951     10950     10953     10954     10951     10950     10953     10955
     10951     10950     10953     10956     10952     10950     10953     10954
     10952     10950     10953     10955     10952     10950     10953     10956
     10950     10953     10956     10957     10950     10953     10956     10958
     10950     10953     10956     10959     10954     10953     10956     10957
     10954     10953     10956     10958     10954     10953     10956     10959
     10955     10953     10956     10957     10955     10953     10956     10958
     10955     10953     10956     10959     10953     10956     10959     10960
     10953     10956     10959     10961     10953     10956     10959     10962
     10957     10956     10959     10960     10957     10956     10959     10961
     10957     10956     10959     10962     10958     10956     10959     10960
     10958     10956     10959     10961     10958     10956     10959     10962
     10964     10963     10967     10968     10964     10963     10967     10969
     10964     10963     10967     10970     10965     10963     10967     10968
     10965     10963     10967     10969     10965     10963     10967     10970
     10966     10963     10967     10968     10966     10963     10967     10969
     10966     10963     10967     10970     10963     10967     10970     10971
     10963     10967     10970     10972     10963     10967     10970     10973
     10968     10967     10970     10971     10968     10967     10970     10972
     10968     10967     10970     10973     10969     10967     10970     10971
     10969     10967     10970     10972     10969     10967     10970     10973
     10967     10970     10973     10974     10967     10970     10973     10975
     10967     10970     10973     10976     10971     10970     10973     10974
     10971     10970     10973     10975     10971     10970     10973     10976
     10972     10970     10973     10974     10972     10970     10973     10975
     10972     10970     10973     10976     10970     10973     10976     10977
     10970     10973     10976     10978     10970     10973     10976     10979
     10974     10973     10976     10977     10974     10973     10976     10978
     10974     10973     10976     10979     10975     10973     10976     10977
     10975     10973     10976     10978     10975     10973     10976     10979
     10973     10976     10979     10980     10973     10976     10979     10981
     10973     10976     10979     10982     10977     10976     10979     10980
     10977     10976     10979     10981     10977     10976     10979     10982
     10978     10976     10979     10980     10978     10976     10979     10981
     10978     10976     10979     10982     10976     10979     10982     10983
     10976     10979     10982     10984     10976     10979     10982     10985
     10980     10979     10982     10983     10980     10979     10982     10984
     10980     10979     10982     10985     10981     10979     10982     10983
     10981     10979     10982     10984     10981     10979     10982     10985
     10979     10982     10985     10986     10979     10982     10985     10987
     10979     10982     10985     10988     10983     10982     10985     10986
     10983     10982     10985     10987     10983     10982     10985     10988
     10984     10982     10985     10986     10984     10982     10985     10987
     10984     10982     10985     10988     10982     10985     10988     10989
     10982     10985     10988     10990     10982     10985     10988     10991
     10986     10985     10988     10989     10986     10985     10988     10990
     10986     10985     10988     10991     10987     10985     10988     10989
     10987     10985     10988     10990     10987     10985     10988     10991
     10985     10988     10991     10992     10985     10988     10991     10993
     10985     10988     10991     10994     10989     10988     10991     10992
     10989     10988     10991     10993     10989     10988     10991     10994
     10990     10988     10991     10992     10990     10988     10991     10993
     10990     10988     10991     10994     10988     10991     10994     10995
     10988     10991     10994     10996     10988     10991     10994     10997
     10992     10991     10994     10995     10992     10991     10994     10996
     10992     10991     10994     10997     10993     10991     10994     10995
     10993     10991     10994     10996     10993     10991     10994     10997
     10991     10994     10997     10998     10991     10994     10997     10999
     10991     10994     10997     11000     10995     10994     10997     10998
     10995     10994     10997     10999     10995     10994     10997     11000
     10996     10994     10997     10998     10996     10994     10997     10999
     10996     10994     10997     11000     10994     10997     11000     11001
     10994     10997     11000     11002     10994     10997     11000     11003
     10998     10997     11000     11001     10998     10997     11000     11002
     10998     10997     11000     11003     10999     10997     11000     11001
     10999     10997     11000     11002     10999     10997     11000     11003
     10997     11000     11003     11004     10997     11000     11003     11005
     10997     11000     11003     11006     11001     11000     11003     11004
     11001     11000     11003     11005     11001     11000     11003     11006
     11002     11000     11003     11004     11002     11000     11003     11005
     11002     11000     11003     11006     11000     11003     11006     11009
     11000     11003     11006     11007     11000     11003     11006     11008
     11004     11003     11006     11009     11004     11003     11006     11007
     11004     11003     11006     11008     11005     11003     11006     11009
     11005     11003     11006     11007     11005     11003     11006     11008
     11010     11009     11006     11003     11011     11009     11006     11003
     11010     11009     11006     11007     11011     11009     11006     11007
     11010     11009     11006     11008     11011     11009     11006     11008
     11006     11009     11011     11012     11010     11009     11011     11012
     11009     11011     11012     11013     11009     11011     11012     11014
     11009     11011     11012     11015     11011     11012     11015     11016
     11011     11012     11015     11017     11011     11012     11015     11044
     11013     11012     11015     11016     11013     11012     11015     11017
     11013     11012     11015     11044     11014     11012     11015     11016
     11014     11012     11015     11017     11014     11012     11015     11044
     11012     11015     11017     11018     11012     11015     11017     11019
     11012     11015     11017     11020     11012     11015     11044     11045
     11016     11015     11017     11018     11016     11015     11017     11019
     11016     11015     11017     11020     11016     11015     11044     11045
     11018     11017     11015     11044     11019     11017     11015     11044
     11020     11017     11015     11044     11017     11015     11044     11045
     11015     11017     11020     11021     11018     11017     11020     11021
     11019     11017     11020     11021     11017     11020     11021     11022
     11017     11020     11021     11042     11017     11020     11021     11043
     11020     11021     11022     11023     11023     11022     11021     11042
     11023     11022     11021     11043     11021     11022     11023     11024
     11021     11022     11023     11025     11021     11022     11023     11026
     11022     11023     11026     11027     11022     11023     11026     11028
     11022     11023     11026     11029     11024     11023     11026     11027
     11024     11023     11026     11028     11024     11023     11026     11029
     11025     11023     11026     11027     11025     11023     11026     11028
     11025     11023     11026     11029     11023     11026     11029     11030
     11023     11026     11029     11034     11023     11026     11029     11038
     11027     11026     11029     11030     11027     11026     11029     11034
     11027     11026     11029     11038     11028     11026     11029     11030
     11028     11026     11029     11034     11028     11026     11029     11038
     11026     11029     11030     11031     11026     11029     11030     11032
     11026     11029     11030     11033     11026     11029     11034     11035
     11026     11029     11034     11036     11026     11029     11034     11037
     11026     11029     11038     11039     11026     11029     11038     11040
     11026     11029     11038     11041     11031     11030     11029     11034
     11032     11030     11029     11034     11033     11030     11029     11034
     11030     11029     11034     11035     11030     11029     11034     11036
     11030     11029     11034     11037     11031     11030     11029     11038
     11032     11030     11029     11038     11033     11030     11029     11038
     11030     11029     11038     11039     11030     11029     11038     11040
     11030     11029     11038     11041     11035     11034     11029     11038
     11036     11034     11029     11038     11037     11034     11029     11038
     11034     11029     11038     11039     11034     11029     11038     11040
     11034     11029     11038     11041     11015     11044     11045     11047
     11015     11044     11045     11046     11048     11047     11045     11044
     11049     11047     11045     11044     11050     11047     11045     11044
     11048     11047     11045     11046     11049     11047     11045     11046
     11050     11047     11045     11046     11045     11047     11050     11051
     11045     11047     11050     11052     11045     11047     11050     11053
     11048     11047     11050     11051     11048     11047     11050     11052
     11048     11047     11050     11053     11049     11047     11050     11051
     11049     11047     11050     11052     11049     11047     11050     11053
     11047     11050     11053     11054     11047     11050     11053     11055
     11047     11050     11053     11056     11051     11050     11053     11054
     11051     11050     11053     11055     11051     11050     11053     11056
     11052     11050     11053     11054     11052     11050     11053     11055
     11052     11050     11053     11056     11050     11053     11056     11057
     11050     11053     11056     11058     11050     11053     11056     11059
     11054     11053     11056     11057     11054     11053     11056     11058
     11054     11053     11056     11059     11055     11053     11056     11057
     11055     11053     11056     11058     11055     11053     11056     11059
     11053     11056     11059     11060     11053     11056     11059     11061
     11053     11056     11059     11062     11057     11056     11059     11060
     11057     11056     11059     11061     11057     11056     11059     11062
     11058     11056     11059     11060     11058     11056     11059     11061
     11058     11056     11059     11062     11056     11059     11062     11063
     11056     11059     11062     11064     11056     11059     11062     11065
     11060     11059     11062     11063     11060     11059     11062     11064
     11060     11059     11062     11065     11061     11059     11062     11063
     11061     11059     11062     11064     11061     11059     11062     11065
     11059     11062     11065     11066     11059     11062     11065     11067
     11059     11062     11065     11068     11063     11062     11065     11066
     11063     11062     11065     11067     11063     11062     11065     11068
     11064     11062     11065     11066     11064     11062     11065     11067
     11064     11062     11065     11068     11062     11065     11068     11069
     11062     11065     11068     11070     11066     11065     11068     11069
     11066     11065     11068     11070     11067     11065     11068     11069
     11067     11065     11068     11070     11065     11068     11070     11071
     11065     11068     11070     11072     11069     11068     11070     11071
     11069     11068     11070     11072     11068     11070     11072     11073
     11068     11070     11072     11074     11068     11070     11072     11075
     11071     11070     11072     11073     11071     11070     11072     11074
     11071     11070     11072     11075     11070     11072     11075     11076
     11070     11072     11075     11077     11070     11072     11075     11078
     11073     11072     11075     11076     11073     11072     11075     11077
     11073     11072     11075     11078     11074     11072     11075     11076
     11074     11072     11075     11077     11074     11072     11075     11078
     11072     11075     11078     11079     11072     11075     11078     11080
     11072     11075     11078     11081     11076     11075     11078     11079
     11076     11075     11078     11080     11076     11075     11078     11081
     11077     11075     11078     11079     11077     11075     11078     11080
     11077     11075     11078     11081     11075     11078     11081     11082
     11075     11078     11081     11083     11075     11078     11081     11084
     11079     11078     11081     11082     11079     11078     11081     11083
     11079     11078     11081     11084     11080     11078     11081     11082
     11080     11078     11081     11083     11080     11078     11081     11084
     11078     11081     11084     11085     11078     11081     11084     11086
     11078     11081     11084     11087     11082     11081     11084     11085
     11082     11081     11084     11086     11082     11081     11084     11087
     11083     11081     11084     11085     11083     11081     11084     11086
     11083     11081     11084     11087     11081     11084     11087     11088
     11081     11084     11087     11089     11081     11084     11087     11090
     11085     11084     11087     11088     11085     11084     11087     11089
     11085     11084     11087     11090     11086     11084     11087     11088
     11086     11084     11087     11089     11086     11084     11087     11090
     11084     11087     11090     11091     11084     11087     11090     11092
     11084     11087     11090     11093     11088     11087     11090     11091
     11088     11087     11090     11092     11088     11087     11090     11093
     11089     11087     11090     11091     11089     11087     11090     11092
     11089     11087     11090     11093     11087     11090     11093     11094
     11087     11090     11093     11095     11087     11090     11093     11096
     11091     11090     11093     11094     11091     11090     11093     11095
     11091     11090     11093     11096     11092     11090     11093     11094
     11092     11090     11093     11095     11092     11090     11093     11096
     11098     11097     11101     11102     11098     11097     11101     11103
     11098     11097     11101     11104     11099     11097     11101     11102
     11099     11097     11101     11103     11099     11097     11101     11104
     11100     11097     11101     11102     11100     11097     11101     11103
     11100     11097     11101     11104     11097     11101     11104     11105
     11097     11101     11104     11106     11097     11101     11104     11107
     11102     11101     11104     11105     11102     11101     11104     11106
     11102     11101     11104     11107     11103     11101     11104     11105
     11103     11101     11104     11106     11103     11101     11104     11107
     11101     11104     11107     11108     11101     11104     11107     11109
     11101     11104     11107     11110     11105     11104     11107     11108
     11105     11104     11107     11109     11105     11104     11107     11110
     11106     11104     11107     11108     11106     11104     11107     11109
     11106     11104     11107     11110     11104     11107     11110     11111
     11104     11107     11110     11112     11104     11107     11110     11113
     11108     11107     11110     11111     11108     11107     11110     11112
     11108     11107     11110     11113     11109     11107     11110     11111
     11109     11107     11110     11112     11109     11107     11110     11113
     11107     11110     11113     11114     11107     11110     11113     11115
     11107     11110     11113     11116     11111     11110     11113     11114
     11111     11110     11113     11115     11111     11110     11113     11116
     11112     11110     11113     11114     11112     11110     11113     11115
     11112     11110     11113     11116     11110     11113     11116     11117
     11110     11113     11116     11118     11110     11113     11116     11119
     11114     11113     11116     11117     11114     11113     11116     11118
     11114     11113     11116     11119     11115     11113     11116     11117
     11115     11113     11116     11118     11115     11113     11116     11119
     11113     11116     11119     11120     11113     11116     11119     11121
     11113     11116     11119     11122     11117     11116     11119     11120
     11117     11116     11119     11121     11117     11116     11119     11122
     11118     11116     11119     11120     11118     11116     11119     11121
     11118     11116     11119     11122     11116     11119     11122     11123
     11116     11119     11122     11124     11116     11119     11122     11125
     11120     11119     11122     11123     11120     11119     11122     11124
     11120     11119     11122     11125     11121     11119     11122     11123
     11121     11119     11122     11124     11121     11119     11122     11125
     11119     11122     11125     11126     11119     11122     11125     11127
     11119     11122     11125     11128     11123     11122     11125     11126
     11123     11122     11125     11127     11123     11122     11125     11128
     11124     11122     11125     11126     11124     11122     11125     11127
     11124     11122     11125     11128     11122     11125     11128     11129
     11122     11125     11128     11130     11122     11125     11128     11131
     11126     11125     11128     11129     11126     11125     11128     11130
     11126     11125     11128     11131     11127     11125     11128     11129
     11127     11125     11128     11130     11127     11125     11128     11131
     11125     11128     11131     11132     11125     11128     11131     11133
     11125     11128     11131     11134     11129     11128     11131     11132
     11129     11128     11131     11133     11129     11128     11131     11134
     11130     11128     11131     11132     11130     11128     11131     11133
     11130     11128     11131     11134     11128     11131     11134     11135
     11128     11131     11134     11136     11128     11131     11134     11137
     11132     11131     11134     11135     11132     11131     11134     11136
     11132     11131     11134     11137     11133     11131     11134     11135
     11133     11131     11134     11136     11133     11131     11134     11137
     11131     11134     11137     11138     11131     11134     11137     11139
     11131     11134     11137     11140     11135     11134     11137     11138
     11135     11134     11137     11139     11135     11134     11137     11140
     11136     11134     11137     11138     11136     11134     11137     11139
     11136     11134     11137     11140     11134     11137     11140     11143
     11134     11137     11140     11141     11134     11137     11140     11142
     11138     11137     11140     11143     11138     11137     11140     11141
     11138     11137     11140     11142     11139     11137     11140     11143
     11139     11137     11140     11141     11139     11137     11140     11142
     11144     11143     11140     11137     11145     11143     11140     11137
     11144     11143     11140     11141     11145     11143     11140     11141
     11144     11143     11140     11142     11145     11143     11140     11142
     11140     11143     11145     11146     11144     11143     11145     11146
     11143     11145     11146     11147     11143     11145     11146     11148
     11143     11145     11146     11149     11145     11146     11149     11150
     11145     11146     11149     11151     11145     11146     11149     11178
     11147     11146     11149     11150     11147     11146     11149     11151
     11147     11146     11149     11178     11148     11146     11149     11150
     11148     11146     11149     11151     11148     11146     11149     11178
     11146     11149     11151     11152     11146     11149     11151     11153
     11146     11149     11151     11154     11146     11149     11178     11179
     11150     11149     11151     11152     11150     11149     11151     11153
     11150     11149     11151     11154     11150     11149     11178     11179
     11152     11151     11149     11178     11153     11151     11149     11178
     11154     11151     11149     11178     11151     11149     11178     11179
     11149     11151     11154     11155     11152     11151     11154     11155
     11153     11151     11154     11155     11151     11154     11155     11156
     11151     11154     11155     11176     11151     11154     11155     11177
     11154     11155     11156     11157     11157     11156     11155     11176
     11157     11156     11155     11177     11155     11156     11157     11158
     11155     11156     11157     11159     11155     11156     11157     11160
     11156     11157     11160     11161     11156     11157     11160     11162
     11156     11157     11160     11163     11158     11157     11160     11161
     11158     11157     11160     11162     11158     11157     11160     11163
     11159     11157     11160     11161     11159     11157     11160     11162
     11159     11157     11160     11163     11157     11160     11163     11164
     11157     11160     11163     11168     11157     11160     11163     11172
     11161     11160     11163     11164     11161     11160     11163     11168
     11161     11160     11163     11172     11162     11160     11163     11164
     11162     11160     11163     11168     11162     11160     11163     11172
     11160     11163     11164     11165     11160     11163     11164     11166
     11160     11163     11164     11167     11160     11163     11168     11169
     11160     11163     11168     11170     11160     11163     11168     11171
     11160     11163     11172     11173     11160     11163     11172     11174
     11160     11163     11172     11175     11165     11164     11163     11168
     11166     11164     11163     11168     11167     11164     11163     11168
     11164     11163     11168     11169     11164     11163     11168     11170
     11164     11163     11168     11171     11165     11164     11163     11172
     11166     11164     11163     11172     11167     11164     11163     11172
     11164     11163     11172     11173     11164     11163     11172     11174
     11164     11163     11172     11175     11169     11168     11163     11172
     11170     11168     11163     11172     11171     11168     11163     11172
     11168     11163     11172     11173     11168     11163     11172     11174
     11168     11163     11172     11175     11149     11178     11179     11181
     11149     11178     11179     11180     11182     11181     11179     11178
     11183     11181     11179     11178     11184     11181     11179     11178
     11182     11181     11179     11180     11183     11181     11179     11180
     11184     11181     11179     11180     11179     11181     11184     11185
     11179     11181     11184     11186     11179     11181     11184     11187
     11182     11181     11184     11185     11182     11181     11184     11186
     11182     11181     11184     11187     11183     11181     11184     11185
     11183     11181     11184     11186     11183     11181     11184     11187
     11181     11184     11187     11188     11181     11184     11187     11189
     11181     11184     11187     11190     11185     11184     11187     11188
     11185     11184     11187     11189     11185     11184     11187     11190
     11186     11184     11187     11188     11186     11184     11187     11189
     11186     11184     11187     11190     11184     11187     11190     11191
     11184     11187     11190     11192     11184     11187     11190     11193
     11188     11187     11190     11191     11188     11187     11190     11192
     11188     11187     11190     11193     11189     11187     11190     11191
     11189     11187     11190     11192     11189     11187     11190     11193
     11187     11190     11193     11194     11187     11190     11193     11195
     11187     11190     11193     11196     11191     11190     11193     11194
     11191     11190     11193     11195     11191     11190     11193     11196
     11192     11190     11193     11194     11192     11190     11193     11195
     11192     11190     11193     11196     11190     11193     11196     11197
     11190     11193     11196     11198     11190     11193     11196     11199
     11194     11193     11196     11197     11194     11193     11196     11198
     11194     11193     11196     11199     11195     11193     11196     11197
     11195     11193     11196     11198     11195     11193     11196     11199
     11193     11196     11199     11200     11193     11196     11199     11201
     11193     11196     11199     11202     11197     11196     11199     11200
     11197     11196     11199     11201     11197     11196     11199     11202
     11198     11196     11199     11200     11198     11196     11199     11201
     11198     11196     11199     11202     11196     11199     11202     11203
     11196     11199     11202     11204     11200     11199     11202     11203
     11200     11199     11202     11204     11201     11199     11202     11203
     11201     11199     11202     11204     11199     11202     11204     11205
     11199     11202     11204     11206     11203     11202     11204     11205
     11203     11202     11204     11206     11202     11204     11206     11207
     11202     11204     11206     11208     11202     11204     11206     11209
     11205     11204     11206     11207     11205     11204     11206     11208
     11205     11204     11206     11209     11204     11206     11209     11210
     11204     11206     11209     11211     11204     11206     11209     11212
     11207     11206     11209     11210     11207     11206     11209     11211
     11207     11206     11209     11212     11208     11206     11209     11210
     11208     11206     11209     11211     11208     11206     11209     11212
     11206     11209     11212     11213     11206     11209     11212     11214
     11206     11209     11212     11215     11210     11209     11212     11213
     11210     11209     11212     11214     11210     11209     11212     11215
     11211     11209     11212     11213     11211     11209     11212     11214
     11211     11209     11212     11215     11209     11212     11215     11216
     11209     11212     11215     11217     11209     11212     11215     11218
     11213     11212     11215     11216     11213     11212     11215     11217
     11213     11212     11215     11218     11214     11212     11215     11216
     11214     11212     11215     11217     11214     11212     11215     11218
     11212     11215     11218     11219     11212     11215     11218     11220
     11212     11215     11218     11221     11216     11215     11218     11219
     11216     11215     11218     11220     11216     11215     11218     11221
     11217     11215     11218     11219     11217     11215     11218     11220
     11217     11215     11218     11221     11215     11218     11221     11222
     11215     11218     11221     11223     11215     11218     11221     11224
     11219     11218     11221     11222     11219     11218     11221     11223
     11219     11218     11221     11224     11220     11218     11221     11222
     11220     11218     11221     11223     11220     11218     11221     11224
     11218     11221     11224     11225     11218     11221     11224     11226
     11218     11221     11224     11227     11222     11221     11224     11225
     11222     11221     11224     11226     11222     11221     11224     11227
     11223     11221     11224     11225     11223     11221     11224     11226
     11223     11221     11224     11227     11221     11224     11227     11228
     11221     11224     11227     11229     11221     11224     11227     11230
     11225     11224     11227     11228     11225     11224     11227     11229
     11225     11224     11227     11230     11226     11224     11227     11228
     11226     11224     11227     11229     11226     11224     11227     11230
     11232     11231     11235     11236     11232     11231     11235     11237
     11232     11231     11235     11238     11233     11231     11235     11236
     11233     11231     11235     11237     11233     11231     11235     11238
     11234     11231     11235     11236     11234     11231     11235     11237
     11234     11231     11235     11238     11231     11235     11238     11239
     11231     11235     11238     11240     11231     11235     11238     11241
     11236     11235     11238     11239     11236     11235     11238     11240
     11236     11235     11238     11241     11237     11235     11238     11239
     11237     11235     11238     11240     11237     11235     11238     11241
     11235     11238     11241     11242     11235     11238     11241     11243
     11235     11238     11241     11244     11239     11238     11241     11242
     11239     11238     11241     11243     11239     11238     11241     11244
     11240     11238     11241     11242     11240     11238     11241     11243
     11240     11238     11241     11244     11238     11241     11244     11245
     11238     11241     11244     11246     11238     11241     11244     11247
     11242     11241     11244     11245     11242     11241     11244     11246
     11242     11241     11244     11247     11243     11241     11244     11245
     11243     11241     11244     11246     11243     11241     11244     11247
     11241     11244     11247     11248     11241     11244     11247     11249
     11241     11244     11247     11250     11245     11244     11247     11248
     11245     11244     11247     11249     11245     11244     11247     11250
     11246     11244     11247     11248     11246     11244     11247     11249
     11246     11244     11247     11250     11244     11247     11250     11251
     11244     11247     11250     11252     11244     11247     11250     11253
     11248     11247     11250     11251     11248     11247     11250     11252
     11248     11247     11250     11253     11249     11247     11250     11251
     11249     11247     11250     11252     11249     11247     11250     11253
     11247     11250     11253     11254     11247     11250     11253     11255
     11247     11250     11253     11256     11251     11250     11253     11254
     11251     11250     11253     11255     11251     11250     11253     11256
     11252     11250     11253     11254     11252     11250     11253     11255
     11252     11250     11253     11256     11250     11253     11256     11257
     11250     11253     11256     11258     11250     11253     11256     11259
     11254     11253     11256     11257     11254     11253     11256     11258
     11254     11253     11256     11259     11255     11253     11256     11257
     11255     11253     11256     11258     11255     11253     11256     11259
     11253     11256     11259     11260     11253     11256     11259     11261
     11253     11256     11259     11262     11257     11256     11259     11260
     11257     11256     11259     11261     11257     11256     11259     11262
     11258     11256     11259     11260     11258     11256     11259     11261
     11258     11256     11259     11262     11256     11259     11262     11263
     11256     11259     11262     11264     11256     11259     11262     11265
     11260     11259     11262     11263     11260     11259     11262     11264
     11260     11259     11262     11265     11261     11259     11262     11263
     11261     11259     11262     11264     11261     11259     11262     11265
     11259     11262     11265     11266     11259     11262     11265     11267
     11259     11262     11265     11268     11263     11262     11265     11266
     11263     11262     11265     11267     11263     11262     11265     11268
     11264     11262     11265     11266     11264     11262     11265     11267
     11264     11262     11265     11268     11262     11265     11268     11269
     11262     11265     11268     11270     11262     11265     11268     11271
     11266     11265     11268     11269     11266     11265     11268     11270
     11266     11265     11268     11271     11267     11265     11268     11269
     11267     11265     11268     11270     11267     11265     11268     11271
     11265     11268     11271     11272     11265     11268     11271     11273
     11265     11268     11271     11274     11269     11268     11271     11272
     11269     11268     11271     11273     11269     11268     11271     11274
     11270     11268     11271     11272     11270     11268     11271     11273
     11270     11268     11271     11274     11268     11271     11274     11277
     11268     11271     11274     11275     11268     11271     11274     11276
     11272     11271     11274     11277     11272     11271     11274     11275
     11272     11271     11274     11276     11273     11271     11274     11277
     11273     11271     11274     11275     11273     11271     11274     11276
     11278     11277     11274     11271     11279     11277     11274     11271
     11278     11277     11274     11275     11279     11277     11274     11275
     11278     11277     11274     11276     11279     11277     11274     11276
     11274     11277     11279     11280     11278     11277     11279     11280
     11277     11279     11280     11281     11277     11279     11280     11282
     11277     11279     11280     11283     11279     11280     11283     11284
     11279     11280     11283     11285     11279     11280     11283     11312
     11281     11280     11283     11284     11281     11280     11283     11285
     11281     11280     11283     11312     11282     11280     11283     11284
     11282     11280     11283     11285     11282     11280     11283     11312
     11280     11283     11285     11286     11280     11283     11285     11287
     11280     11283     11285     11288     11280     11283     11312     11313
     11284     11283     11285     11286     11284     11283     11285     11287
     11284     11283     11285     11288     11284     11283     11312     11313
     11286     11285     11283     11312     11287     11285     11283     11312
     11288     11285     11283     11312     11285     11283     11312     11313
     11283     11285     11288     11289     11286     11285     11288     11289
     11287     11285     11288     11289     11285     11288     11289     11290
     11285     11288     11289     11310     11285     11288     11289     11311
     11288     11289     11290     11291     11291     11290     11289     11310
     11291     11290     11289     11311     11289     11290     11291     11292
     11289     11290     11291     11293     11289     11290     11291     11294
     11290     11291     11294     11295     11290     11291     11294     11296
     11290     11291     11294     11297     11292     11291     11294     11295
     11292     11291     11294     11296     11292     11291     11294     11297
     11293     11291     11294     11295     11293     11291     11294     11296
     11293     11291     11294     11297     11291     11294     11297     11298
     11291     11294     11297     11302     11291     11294     11297     11306
     11295     11294     11297     11298     11295     11294     11297     11302
     11295     11294     11297     11306     11296     11294     11297     11298
     11296     11294     11297     11302     11296     11294     11297     11306
     11294     11297     11298     11299     11294     11297     11298     11300
     11294     11297     11298     11301     11294     11297     11302     11303
     11294     11297     11302     11304     11294     11297     11302     11305
     11294     11297     11306     11307     11294     11297     11306     11308
     11294     11297     11306     11309     11299     11298     11297     11302
     11300     11298     11297     11302     11301     11298     11297     11302
     11298     11297     11302     11303     11298     11297     11302     11304
     11298     11297     11302     11305     11299     11298     11297     11306
     11300     11298     11297     11306     11301     11298     11297     11306
     11298     11297     11306     11307     11298     11297     11306     11308
     11298     11297     11306     11309     11303     11302     11297     11306
     11304     11302     11297     11306     11305     11302     11297     11306
     11302     11297     11306     11307     11302     11297     11306     11308
     11302     11297     11306     11309     11283     11312     11313     11315
     11283     11312     11313     11314     11316     11315     11313     11312
     11317     11315     11313     11312     11318     11315     11313     11312
     11316     11315     11313     11314     11317     11315     11313     11314
     11318     11315     11313     11314     11313     11315     11318     11319
     11313     11315     11318     11320     11313     11315     11318     11321
     11316     11315     11318     11319     11316     11315     11318     11320
     11316     11315     11318     11321     11317     11315     11318     11319
     11317     11315     11318     11320     11317     11315     11318     11321
     11315     11318     11321     11322     11315     11318     11321     11323
     11315     11318     11321     11324     11319     11318     11321     11322
     11319     11318     11321     11323     11319     11318     11321     11324
     11320     11318     11321     11322     11320     11318     11321     11323
     11320     11318     11321     11324     11318     11321     11324     11325
     11318     11321     11324     11326     11318     11321     11324     11327
     11322     11321     11324     11325     11322     11321     11324     11326
     11322     11321     11324     11327     11323     11321     11324     11325
     11323     11321     11324     11326     11323     11321     11324     11327
     11321     11324     11327     11328     11321     11324     11327     11329
     11321     11324     11327     11330     11325     11324     11327     11328
     11325     11324     11327     11329     11325     11324     11327     11330
     11326     11324     11327     11328     11326     11324     11327     11329
     11326     11324     11327     11330     11324     11327     11330     11331
     11324     11327     11330     11332     11324     11327     11330     11333
     11328     11327     11330     11331     11328     11327     11330     11332
     11328     11327     11330     11333     11329     11327     11330     11331
     11329     11327     11330     11332     11329     11327     11330     11333
     11327     11330     11333     11334     11327     11330     11333     11335
     11327     11330     11333     11336     11331     11330     11333     11334
     11331     11330     11333     11335     11331     11330     11333     11336
     11332     11330     11333     11334     11332     11330     11333     11335
     11332     11330     11333     11336     11330     11333     11336     11337
     11330     11333     11336     11338     11334     11333     11336     11337
     11334     11333     11336     11338     11335     11333     11336     11337
     11335     11333     11336     11338     11333     11336     11338     11339
     11333     11336     11338     11340     11337     11336     11338     11339
     11337     11336     11338     11340     11336     11338     11340     11341
     11336     11338     11340     11342     11336     11338     11340     11343
     11339     11338     11340     11341     11339     11338     11340     11342
     11339     11338     11340     11343     11338     11340     11343     11344
     11338     11340     11343     11345     11338     11340     11343     11346
     11341     11340     11343     11344     11341     11340     11343     11345
     11341     11340     11343     11346     11342     11340     11343     11344
     11342     11340     11343     11345     11342     11340     11343     11346
     11340     11343     11346     11347     11340     11343     11346     11348
     11340     11343     11346     11349     11344     11343     11346     11347
     11344     11343     11346     11348     11344     11343     11346     11349
     11345     11343     11346     11347     11345     11343     11346     11348
     11345     11343     11346     11349     11343     11346     11349     11350
     11343     11346     11349     11351     11343     11346     11349     11352
     11347     11346     11349     11350     11347     11346     11349     11351
     11347     11346     11349     11352     11348     11346     11349     11350
     11348     11346     11349     11351     11348     11346     11349     11352
     11346     11349     11352     11353     11346     11349     11352     11354
     11346     11349     11352     11355     11350     11349     11352     11353
     11350     11349     11352     11354     11350     11349     11352     11355
     11351     11349     11352     11353     11351     11349     11352     11354
     11351     11349     11352     11355     11349     11352     11355     11356
     11349     11352     11355     11357     11349     11352     11355     11358
     11353     11352     11355     11356     11353     11352     11355     11357
     11353     11352     11355     11358     11354     11352     11355     11356
     11354     11352     11355     11357     11354     11352     11355     11358
     11352     11355     11358     11359     11352     11355     11358     11360
     11352     11355     11358     11361     11356     11355     11358     11359
     11356     11355     11358     11360     11356     11355     11358     11361
     11357     11355     11358     11359     11357     11355     11358     11360
     11357     11355     11358     11361     11355     11358     11361     11362
     11355     11358     11361     11363     11355     11358     11361     11364
     11359     11358     11361     11362     11359     11358     11361     11363
     11359     11358     11361     11364     11360     11358     11361     11362
     11360     11358     11361     11363     11360     11358     11361     11364
     11366     11365     11369     11370     11366     11365     11369     11371
     11366     11365     11369     11372     11367     11365     11369     11370
     11367     11365     11369     11371     11367     11365     11369     11372
     11368     11365     11369     11370     11368     11365     11369     11371
     11368     11365     11369     11372     11365     11369     11372     11373
     11365     11369     11372     11374     11365     11369     11372     11375
     11370     11369     11372     11373     11370     11369     11372     11374
     11370     11369     11372     11375     11371     11369     11372     11373
     11371     11369     11372     11374     11371     11369     11372     11375
     11369     11372     11375     11376     11369     11372     11375     11377
     11369     11372     11375     11378     11373     11372     11375     11376
     11373     11372     11375     11377     11373     11372     11375     11378
     11374     11372     11375     11376     11374     11372     11375     11377
     11374     11372     11375     11378     11372     11375     11378     11379
     11372     11375     11378     11380     11372     11375     11378     11381
     11376     11375     11378     11379     11376     11375     11378     11380
     11376     11375     11378     11381     11377     11375     11378     11379
     11377     11375     11378     11380     11377     11375     11378     11381
     11375     11378     11381     11382     11375     11378     11381     11383
     11375     11378     11381     11384     11379     11378     11381     11382
     11379     11378     11381     11383     11379     11378     11381     11384
     11380     11378     11381     11382     11380     11378     11381     11383
     11380     11378     11381     11384     11378     11381     11384     11385
     11378     11381     11384     11386     11378     11381     11384     11387
     11382     11381     11384     11385     11382     11381     11384     11386
     11382     11381     11384     11387     11383     11381     11384     11385
     11383     11381     11384     11386     11383     11381     11384     11387
     11381     11384     11387     11388     11381     11384     11387     11389
     11381     11384     11387     11390     11385     11384     11387     11388
     11385     11384     11387     11389     11385     11384     11387     11390
     11386     11384     11387     11388     11386     11384     11387     11389
     11386     11384     11387     11390     11384     11387     11390     11391
     11384     11387     11390     11392     11384     11387     11390     11393
     11388     11387     11390     11391     11388     11387     11390     11392
     11388     11387     11390     11393     11389     11387     11390     11391
     11389     11387     11390     11392     11389     11387     11390     11393
     11387     11390     11393     11394     11387     11390     11393     11395
     11387     11390     11393     11396     11391     11390     11393     11394
     11391     11390     11393     11395     11391     11390     11393     11396
     11392     11390     11393     11394     11392     11390     11393     11395
     11392     11390     11393     11396     11390     11393     11396     11397
     11390     11393     11396     11398     11390     11393     11396     11399
     11394     11393     11396     11397     11394     11393     11396     11398
     11394     11393     11396     11399     11395     11393     11396     11397
     11395     11393     11396     11398     11395     11393     11396     11399
     11393     11396     11399     11400     11393     11396     11399     11401
     11393     11396     11399     11402     11397     11396     11399     11400
     11397     11396     11399     11401     11397     11396     11399     11402
     11398     11396     11399     11400     11398     11396     11399     11401
     11398     11396     11399     11402     11396     11399     11402     11403
     11396     11399     11402     11404     11396     11399     11402     11405
     11400     11399     11402     11403     11400     11399     11402     11404
     11400     11399     11402     11405     11401     11399     11402     11403
     11401     11399     11402     11404     11401     11399     11402     11405
     11399     11402     11405     11406     11399     11402     11405     11407
     11399     11402     11405     11408     11403     11402     11405     11406
     11403     11402     11405     11407     11403     11402     11405     11408
     11404     11402     11405     11406     11404     11402     11405     11407
     11404     11402     11405     11408     11402     11405     11408     11411
     11402     11405     11408     11409     11402     11405     11408     11410
     11406     11405     11408     11411     11406     11405     11408     11409
     11406     11405     11408     11410     11407     11405     11408     11411
     11407     11405     11408     11409     11407     11405     11408     11410
     11412     11411     11408     11405     11413     11411     11408     11405
     11412     11411     11408     11409     11413     11411     11408     11409
     11412     11411     11408     11410     11413     11411     11408     11410
     11408     11411     11413     11414     11412     11411     11413     11414
     11411     11413     11414     11415     11411     11413     11414     11416
     11411     11413     11414     11417     11413     11414     11417     11418
     11413     11414     11417     11419     11413     11414     11417     11446
     11415     11414     11417     11418     11415     11414     11417     11419
     11415     11414     11417     11446     11416     11414     11417     11418
     11416     11414     11417     11419     11416     11414     11417     11446
     11414     11417     11419     11420     11414     11417     11419     11421
     11414     11417     11419     11422     11414     11417     11446     11447
     11418     11417     11419     11420     11418     11417     11419     11421
     11418     11417     11419     11422     11418     11417     11446     11447
     11420     11419     11417     11446     11421     11419     11417     11446
     11422     11419     11417     11446     11419     11417     11446     11447
     11417     11419     11422     11423     11420     11419     11422     11423
     11421     11419     11422     11423     11419     11422     11423     11424
     11419     11422     11423     11444     11419     11422     11423     11445
     11422     11423     11424     11425     11425     11424     11423     11444
     11425     11424     11423     11445     11423     11424     11425     11426
     11423     11424     11425     11427     11423     11424     11425     11428
     11424     11425     11428     11429     11424     11425     11428     11430
     11424     11425     11428     11431     11426     11425     11428     11429
     11426     11425     11428     11430     11426     11425     11428     11431
     11427     11425     11428     11429     11427     11425     11428     11430
     11427     11425     11428     11431     11425     11428     11431     11432
     11425     11428     11431     11436     11425     11428     11431     11440
     11429     11428     11431     11432     11429     11428     11431     11436
     11429     11428     11431     11440     11430     11428     11431     11432
     11430     11428     11431     11436     11430     11428     11431     11440
     11428     11431     11432     11433     11428     11431     11432     11434
     11428     11431     11432     11435     11428     11431     11436     11437
     11428     11431     11436     11438     11428     11431     11436     11439
     11428     11431     11440     11441     11428     11431     11440     11442
     11428     11431     11440     11443     11433     11432     11431     11436
     11434     11432     11431     11436     11435     11432     11431     11436
     11432     11431     11436     11437     11432     11431     11436     11438
     11432     11431     11436     11439     11433     11432     11431     11440
     11434     11432     11431     11440     11435     11432     11431     11440
     11432     11431     11440     11441     11432     11431     11440     11442
     11432     11431     11440     11443     11437     11436     11431     11440
     11438     11436     11431     11440     11439     11436     11431     11440
     11436     11431     11440     11441     11436     11431     11440     11442
     11436     11431     11440     11443     11417     11446     11447     11449
     11417     11446     11447     11448     11450     11449     11447     11446
     11451     11449     11447     11446     11452     11449     11447     11446
     11450     11449     11447     11448     11451     11449     11447     11448
     11452     11449     11447     11448     11447     11449     11452     11453
     11447     11449     11452     11454     11447     11449     11452     11455
     11450     11449     11452     11453     11450     11449     11452     11454
     11450     11449     11452     11455     11451     11449     11452     11453
     11451     11449     11452     11454     11451     11449     11452     11455
     11449     11452     11455     11456     11449     11452     11455     11457
     11449     11452     11455     11458     11453     11452     11455     11456
     11453     11452     11455     11457     11453     11452     11455     11458
     11454     11452     11455     11456     11454     11452     11455     11457
     11454     11452     11455     11458     11452     11455     11458     11459
     11452     11455     11458     11460     11452     11455     11458     11461
     11456     11455     11458     11459     11456     11455     11458     11460
     11456     11455     11458     11461     11457     11455     11458     11459
     11457     11455     11458     11460     11457     11455     11458     11461
     11455     11458     11461     11462     11455     11458     11461     11463
     11455     11458     11461     11464     11459     11458     11461     11462
     11459     11458     11461     11463     11459     11458     11461     11464
     11460     11458     11461     11462     11460     11458     11461     11463
     11460     11458     11461     11464     11458     11461     11464     11465
     11458     11461     11464     11466     11458     11461     11464     11467
     11462     11461     11464     11465     11462     11461     11464     11466
     11462     11461     11464     11467     11463     11461     11464     11465
     11463     11461     11464     11466     11463     11461     11464     11467
     11461     11464     11467     11468     11461     11464     11467     11469
     11461     11464     11467     11470     11465     11464     11467     11468
     11465     11464     11467     11469     11465     11464     11467     11470
     11466     11464     11467     11468     11466     11464     11467     11469
     11466     11464     11467     11470     11464     11467     11470     11471
     11464     11467     11470     11472     11468     11467     11470     11471
     11468     11467     11470     11472     11469     11467     11470     11471
     11469     11467     11470     11472     11467     11470     11472     11473
     11467     11470     11472     11474     11471     11470     11472     11473
     11471     11470     11472     11474     11470     11472     11474     11475
     11470     11472     11474     11476     11470     11472     11474     11477
     11473     11472     11474     11475     11473     11472     11474     11476
     11473     11472     11474     11477     11472     11474     11477     11478
     11472     11474     11477     11479     11472     11474     11477     11480
     11475     11474     11477     11478     11475     11474     11477     11479
     11475     11474     11477     11480     11476     11474     11477     11478
     11476     11474     11477     11479     11476     11474     11477     11480
     11474     11477     11480     11481     11474     11477     11480     11482
     11474     11477     11480     11483     11478     11477     11480     11481
     11478     11477     11480     11482     11478     11477     11480     11483
     11479     11477     11480     11481     11479     11477     11480     11482
     11479     11477     11480     11483     11477     11480     11483     11484
     11477     11480     11483     11485     11477     11480     11483     11486
     11481     11480     11483     11484     11481     11480     11483     11485
     11481     11480     11483     11486     11482     11480     11483     11484
     11482     11480     11483     11485     11482     11480     11483     11486
     11480     11483     11486     11487     11480     11483     11486     11488
     11480     11483     11486     11489     11484     11483     11486     11487
     11484     11483     11486     11488     11484     11483     11486     11489
     11485     11483     11486     11487     11485     11483     11486     11488
     11485     11483     11486     11489     11483     11486     11489     11490
     11483     11486     11489     11491     11483     11486     11489     11492
     11487     11486     11489     11490     11487     11486     11489     11491
     11487     11486     11489     11492     11488     11486     11489     11490
     11488     11486     11489     11491     11488     11486     11489     11492
     11486     11489     11492     11493     11486     11489     11492     11494
     11486     11489     11492     11495     11490     11489     11492     11493
     11490     11489     11492     11494     11490     11489     11492     11495
     11491     11489     11492     11493     11491     11489     11492     11494
     11491     11489     11492     11495     11489     11492     11495     11496
     11489     11492     11495     11497     11489     11492     11495     11498
     11493     11492     11495     11496     11493     11492     11495     11497
     11493     11492     11495     11498     11494     11492     11495     11496
     11494     11492     11495     11497     11494     11492     11495     11498
     11500     11499     11503     11504     11500     11499     11503     11505
     11500     11499     11503     11506     11501     11499     11503     11504
     11501     11499     11503     11505     11501     11499     11503     11506
     11502     11499     11503     11504     11502     11499     11503     11505
     11502     11499     11503     11506     11499     11503     11506     11507
     11499     11503     11506     11508     11499     11503     11506     11509
     11504     11503     11506     11507     11504     11503     11506     11508
     11504     11503     11506     11509     11505     11503     11506     11507
     11505     11503     11506     11508     11505     11503     11506     11509
     11503     11506     11509     11510     11503     11506     11509     11511
     11503     11506     11509     11512     11507     11506     11509     11510
     11507     11506     11509     11511     11507     11506     11509     11512
     11508     11506     11509     11510     11508     11506     11509     11511
     11508     11506     11509     11512     11506     11509     11512     11513
     11506     11509     11512     11514     11506     11509     11512     11515
     11510     11509     11512     11513     11510     11509     11512     11514
     11510     11509     11512     11515     11511     11509     11512     11513
     11511     11509     11512     11514     11511     11509     11512     11515
     11509     11512     11515     11516     11509     11512     11515     11517
     11509     11512     11515     11518     11513     11512     11515     11516
     11513     11512     11515     11517     11513     11512     11515     11518
     11514     11512     11515     11516     11514     11512     11515     11517
     11514     11512     11515     11518     11512     11515     11518     11519
     11512     11515     11518     11520     11512     11515     11518     11521
     11516     11515     11518     11519     11516     11515     11518     11520
     11516     11515     11518     11521     11517     11515     11518     11519
     11517     11515     11518     11520     11517     11515     11518     11521
     11515     11518     11521     11522     11515     11518     11521     11523
     11515     11518     11521     11524     11519     11518     11521     11522
     11519     11518     11521     11523     11519     11518     11521     11524
     11520     11518     11521     11522     11520     11518     11521     11523
     11520     11518     11521     11524     11518     11521     11524     11525
     11518     11521     11524     11526     11518     11521     11524     11527
     11522     11521     11524     11525     11522     11521     11524     11526
     11522     11521     11524     11527     11523     11521     11524     11525
     11523     11521     11524     11526     11523     11521     11524     11527
     11521     11524     11527     11528     11521     11524     11527     11529
     11521     11524     11527     11530     11525     11524     11527     11528
     11525     11524     11527     11529     11525     11524     11527     11530
     11526     11524     11527     11528     11526     11524     11527     11529
     11526     11524     11527     11530     11524     11527     11530     11531
     11524     11527     11530     11532     11524     11527     11530     11533
     11528     11527     11530     11531     11528     11527     11530     11532
     11528     11527     11530     11533     11529     11527     11530     11531
     11529     11527     11530     11532     11529     11527     11530     11533
     11527     11530     11533     11534     11527     11530     11533     11535
     11527     11530     11533     11536     11531     11530     11533     11534
     11531     11530     11533     11535     11531     11530     11533     11536
     11532     11530     11533     11534     11532     11530     11533     11535
     11532     11530     11533     11536     11530     11533     11536     11537
     11530     11533     11536     11538     11530     11533     11536     11539
     11534     11533     11536     11537     11534     11533     11536     11538
     11534     11533     11536     11539     11535     11533     11536     11537
     11535     11533     11536     11538     11535     11533     11536     11539
     11533     11536     11539     11540     11533     11536     11539     11541
     11533     11536     11539     11542     11537     11536     11539     11540
     11537     11536     11539     11541     11537     11536     11539     11542
     11538     11536     11539     11540     11538     11536     11539     11541
     11538     11536     11539     11542     11536     11539     11542     11545
     11536     11539     11542     11543     11536     11539     11542     11544
     11540     11539     11542     11545     11540     11539     11542     11543
     11540     11539     11542     11544     11541     11539     11542     11545
     11541     11539     11542     11543     11541     11539     11542     11544
     11546     11545     11542     11539     11547     11545     11542     11539
     11546     11545     11542     11543     11547     11545     11542     11543
     11546     11545     11542     11544     11547     11545     11542     11544
     11542     11545     11547     11548     11546     11545     11547     11548
     11545     11547     11548     11549     11545     11547     11548     11550
     11545     11547     11548     11551     11547     11548     11551     11552
     11547     11548     11551     11553     11547     11548     11551     11580
     11549     11548     11551     11552     11549     11548     11551     11553
     11549     11548     11551     11580     11550     11548     11551     11552
     11550     11548     11551     11553     11550     11548     11551     11580
     11548     11551     11553     11554     11548     11551     11553     11555
     11548     11551     11553     11556     11548     11551     11580     11581
     11552     11551     11553     11554     11552     11551     11553     11555
     11552     11551     11553     11556     11552     11551     11580     11581
     11554     11553     11551     11580     11555     11553     11551     11580
     11556     11553     11551     11580     11553     11551     11580     11581
     11551     11553     11556     11557     11554     11553     11556     11557
     11555     11553     11556     11557     11553     11556     11557     11558
     11553     11556     11557     11578     11553     11556     11557     11579
     11556     11557     11558     11559     11559     11558     11557     11578
     11559     11558     11557     11579     11557     11558     11559     11560
     11557     11558     11559     11561     11557     11558     11559     11562
     11558     11559     11562     11563     11558     11559     11562     11564
     11558     11559     11562     11565     11560     11559     11562     11563
     11560     11559     11562     11564     11560     11559     11562     11565
     11561     11559     11562     11563     11561     11559     11562     11564
     11561     11559     11562     11565     11559     11562     11565     11566
     11559     11562     11565     11570     11559     11562     11565     11574
     11563     11562     11565     11566     11563     11562     11565     11570
     11563     11562     11565     11574     11564     11562     11565     11566
     11564     11562     11565     11570     11564     11562     11565     11574
     11562     11565     11566     11567     11562     11565     11566     11568
     11562     11565     11566     11569     11562     11565     11570     11571
     11562     11565     11570     11572     11562     11565     11570     11573
     11562     11565     11574     11575     11562     11565     11574     11576
     11562     11565     11574     11577     11567     11566     11565     11570
     11568     11566     11565     11570     11569     11566     11565     11570
     11566     11565     11570     11571     11566     11565     11570     11572
     11566     11565     11570     11573     11567     11566     11565     11574
     11568     11566     11565     11574     11569     11566     11565     11574
     11566     11565     11574     11575     11566     11565     11574     11576
     11566     11565     11574     11577     11571     11570     11565     11574
     11572     11570     11565     11574     11573     11570     11565     11574
     11570     11565     11574     11575     11570     11565     11574     11576
     11570     11565     11574     11577     11551     11580     11581     11583
     11551     11580     11581     11582     11584     11583     11581     11580
     11585     11583     11581     11580     11586     11583     11581     11580
     11584     11583     11581     11582     11585     11583     11581     11582
     11586     11583     11581     11582     11581     11583     11586     11587
     11581     11583     11586     11588     11581     11583     11586     11589
     11584     11583     11586     11587     11584     11583     11586     11588
     11584     11583     11586     11589     11585     11583     11586     11587
     11585     11583     11586     11588     11585     11583     11586     11589
     11583     11586     11589     11590     11583     11586     11589     11591
     11583     11586     11589     11592     11587     11586     11589     11590
     11587     11586     11589     11591     11587     11586     11589     11592
     11588     11586     11589     11590     11588     11586     11589     11591
     11588     11586     11589     11592     11586     11589     11592     11593
     11586     11589     11592     11594     11586     11589     11592     11595
     11590     11589     11592     11593     11590     11589     11592     11594
     11590     11589     11592     11595     11591     11589     11592     11593
     11591     11589     11592     11594     11591     11589     11592     11595
     11589     11592     11595     11596     11589     11592     11595     11597
     11589     11592     11595     11598     11593     11592     11595     11596
     11593     11592     11595     11597     11593     11592     11595     11598
     11594     11592     11595     11596     11594     11592     11595     11597
     11594     11592     11595     11598     11592     11595     11598     11599
     11592     11595     11598     11600     11592     11595     11598     11601
     11596     11595     11598     11599     11596     11595     11598     11600
     11596     11595     11598     11601     11597     11595     11598     11599
     11597     11595     11598     11600     11597     11595     11598     11601
     11595     11598     11601     11602     11595     11598     11601     11603
     11595     11598     11601     11604     11599     11598     11601     11602
     11599     11598     11601     11603     11599     11598     11601     11604
     11600     11598     11601     11602     11600     11598     11601     11603
     11600     11598     11601     11604     11598     11601     11604     11605
     11598     11601     11604     11606     11602     11601     11604     11605
     11602     11601     11604     11606     11603     11601     11604     11605
     11603     11601     11604     11606     11601     11604     11606     11607
     11601     11604     11606     11608     11605     11604     11606     11607
     11605     11604     11606     11608     11604     11606     11608     11609
     11604     11606     11608     11610     11604     11606     11608     11611
     11607     11606     11608     11609     11607     11606     11608     11610
     11607     11606     11608     11611     11606     11608     11611     11612
     11606     11608     11611     11613     11606     11608     11611     11614
     11609     11608     11611     11612     11609     11608     11611     11613
     11609     11608     11611     11614     11610     11608     11611     11612
     11610     11608     11611     11613     11610     11608     11611     11614
     11608     11611     11614     11615     11608     11611     11614     11616
     11608     11611     11614     11617     11612     11611     11614     11615
     11612     11611     11614     11616     11612     11611     11614     11617
     11613     11611     11614     11615     11613     11611     11614     11616
     11613     11611     11614     11617     11611     11614     11617     11618
     11611     11614     11617     11619     11611     11614     11617     11620
     11615     11614     11617     11618     11615     11614     11617     11619
     11615     11614     11617     11620     11616     11614     11617     11618
     11616     11614     11617     11619     11616     11614     11617     11620
     11614     11617     11620     11621     11614     11617     11620     11622
     11614     11617     11620     11623     11618     11617     11620     11621
     11618     11617     11620     11622     11618     11617     11620     11623
     11619     11617     11620     11621     11619     11617     11620     11622
     11619     11617     11620     11623     11617     11620     11623     11624
     11617     11620     11623     11625     11617     11620     11623     11626
     11621     11620     11623     11624     11621     11620     11623     11625
     11621     11620     11623     11626     11622     11620     11623     11624
     11622     11620     11623     11625     11622     11620     11623     11626
     11620     11623     11626     11627     11620     11623     11626     11628
     11620     11623     11626     11629     11624     11623     11626     11627
     11624     11623     11626     11628     11624     11623     11626     11629
     11625     11623     11626     11627     11625     11623     11626     11628
     11625     11623     11626     11629     11623     11626     11629     11630
     11623     11626     11629     11631     11623     11626     11629     11632
     11627     11626     11629     11630     11627     11626     11629     11631
     11627     11626     11629     11632     11628     11626     11629     11630
     11628     11626     11629     11631     11628     11626     11629     11632
     11634     11633     11637     11638     11634     11633     11637     11639
     11634     11633     11637     11640     11635     11633     11637     11638
     11635     11633     11637     11639     11635     11633     11637     11640
     11636     11633     11637     11638     11636     11633     11637     11639
     11636     11633     11637     11640     11633     11637     11640     11641
     11633     11637     11640     11642     11633     11637     11640     11643
     11638     11637     11640     11641     11638     11637     11640     11642
     11638     11637     11640     11643     11639     11637     11640     11641
     11639     11637     11640     11642     11639     11637     11640     11643
     11637     11640     11643     11644     11637     11640     11643     11645
     11637     11640     11643     11646     11641     11640     11643     11644
     11641     11640     11643     11645     11641     11640     11643     11646
     11642     11640     11643     11644     11642     11640     11643     11645
     11642     11640     11643     11646     11640     11643     11646     11647
     11640     11643     11646     11648     11640     11643     11646     11649
     11644     11643     11646     11647     11644     11643     11646     11648
     11644     11643     11646     11649     11645     11643     11646     11647
     11645     11643     11646     11648     11645     11643     11646     11649
     11643     11646     11649     11650     11643     11646     11649     11651
     11643     11646     11649     11652     11647     11646     11649     11650
     11647     11646     11649     11651     11647     11646     11649     11652
     11648     11646     11649     11650     11648     11646     11649     11651
     11648     11646     11649     11652     11646     11649     11652     11653
     11646     11649     11652     11654     11646     11649     11652     11655
     11650     11649     11652     11653     11650     11649     11652     11654
     11650     11649     11652     11655     11651     11649     11652     11653
     11651     11649     11652     11654     11651     11649     11652     11655
     11649     11652     11655     11656     11649     11652     11655     11657
     11649     11652     11655     11658     11653     11652     11655     11656
     11653     11652     11655     11657     11653     11652     11655     11658
     11654     11652     11655     11656     11654     11652     11655     11657
     11654     11652     11655     11658     11652     11655     11658     11659
     11652     11655     11658     11660     11652     11655     11658     11661
     11656     11655     11658     11659     11656     11655     11658     11660
     11656     11655     11658     11661     11657     11655     11658     11659
     11657     11655     11658     11660     11657     11655     11658     11661
     11655     11658     11661     11662     11655     11658     11661     11663
     11655     11658     11661     11664     11659     11658     11661     11662
     11659     11658     11661     11663     11659     11658     11661     11664
     11660     11658     11661     11662     11660     11658     11661     11663
     11660     11658     11661     11664     11658     11661     11664     11665
     11658     11661     11664     11666     11658     11661     11664     11667
     11662     11661     11664     11665     11662     11661     11664     11666
     11662     11661     11664     11667     11663     11661     11664     11665
     11663     11661     11664     11666     11663     11661     11664     11667
     11661     11664     11667     11668     11661     11664     11667     11669
     11661     11664     11667     11670     11665     11664     11667     11668
     11665     11664     11667     11669     11665     11664     11667     11670
     11666     11664     11667     11668     11666     11664     11667     11669
     11666     11664     11667     11670     11664     11667     11670     11671
     11664     11667     11670     11672     11664     11667     11670     11673
     11668     11667     11670     11671     11668     11667     11670     11672
     11668     11667     11670     11673     11669     11667     11670     11671
     11669     11667     11670     11672     11669     11667     11670     11673
     11667     11670     11673     11674     11667     11670     11673     11675
     11667     11670     11673     11676     11671     11670     11673     11674
     11671     11670     11673     11675     11671     11670     11673     11676
     11672     11670     11673     11674     11672     11670     11673     11675
     11672     11670     11673     11676     11670     11673     11676     11679
     11670     11673     11676     11677     11670     11673     11676     11678
     11674     11673     11676     11679     11674     11673     11676     11677
     11674     11673     11676     11678     11675     11673     11676     11679
     11675     11673     11676     11677     11675     11673     11676     11678
     11680     11679     11676     11673     11681     11679     11676     11673
     11680     11679     11676     11677     11681     11679     11676     11677
     11680     11679     11676     11678     11681     11679     11676     11678
     11676     11679     11681     11682     11680     11679     11681     11682
     11679     11681     11682     11683     11679     11681     11682     11684
     11679     11681     11682     11685     11681     11682     11685     11686
     11681     11682     11685     11687     11681     11682     11685     11714
     11683     11682     11685     11686     11683     11682     11685     11687
     11683     11682     11685     11714     11684     11682     11685     11686
     11684     11682     11685     11687     11684     11682     11685     11714
     11682     11685     11687     11688     11682     11685     11687     11689
     11682     11685     11687     11690     11682     11685     11714     11715
     11686     11685     11687     11688     11686     11685     11687     11689
     11686     11685     11687     11690     11686     11685     11714     11715
     11688     11687     11685     11714     11689     11687     11685     11714
     11690     11687     11685     11714     11687     11685     11714     11715
     11685     11687     11690     11691     11688     11687     11690     11691
     11689     11687     11690     11691     11687     11690     11691     11692
     11687     11690     11691     11712     11687     11690     11691     11713
     11690     11691     11692     11693     11693     11692     11691     11712
     11693     11692     11691     11713     11691     11692     11693     11694
     11691     11692     11693     11695     11691     11692     11693     11696
     11692     11693     11696     11697     11692     11693     11696     11698
     11692     11693     11696     11699     11694     11693     11696     11697
     11694     11693     11696     11698     11694     11693     11696     11699
     11695     11693     11696     11697     11695     11693     11696     11698
     11695     11693     11696     11699     11693     11696     11699     11700
     11693     11696     11699     11704     11693     11696     11699     11708
     11697     11696     11699     11700     11697     11696     11699     11704
     11697     11696     11699     11708     11698     11696     11699     11700
     11698     11696     11699     11704     11698     11696     11699     11708
     11696     11699     11700     11701     11696     11699     11700     11702
     11696     11699     11700     11703     11696     11699     11704     11705
     11696     11699     11704     11706     11696     11699     11704     11707
     11696     11699     11708     11709     11696     11699     11708     11710
     11696     11699     11708     11711     11701     11700     11699     11704
     11702     11700     11699     11704     11703     11700     11699     11704
     11700     11699     11704     11705     11700     11699     11704     11706
     11700     11699     11704     11707     11701     11700     11699     11708
     11702     11700     11699     11708     11703     11700     11699     11708
     11700     11699     11708     11709     11700     11699     11708     11710
     11700     11699     11708     11711     11705     11704     11699     11708
     11706     11704     11699     11708     11707     11704     11699     11708
     11704     11699     11708     11709     11704     11699     11708     11710
     11704     11699     11708     11711     11685     11714     11715     11717
     11685     11714     11715     11716     11718     11717     11715     11714
     11719     11717     11715     11714     11720     11717     11715     11714
     11718     11717     11715     11716     11719     11717     11715     11716
     11720     11717     11715     11716     11715     11717     11720     11721
     11715     11717     11720     11722     11715     11717     11720     11723
     11718     11717     11720     11721     11718     11717     11720     11722
     11718     11717     11720     11723     11719     11717     11720     11721
     11719     11717     11720     11722     11719     11717     11720     11723
     11717     11720     11723     11724     11717     11720     11723     11725
     11717     11720     11723     11726     11721     11720     11723     11724
     11721     11720     11723     11725     11721     11720     11723     11726
     11722     11720     11723     11724     11722     11720     11723     11725
     11722     11720     11723     11726     11720     11723     11726     11727
     11720     11723     11726     11728     11720     11723     11726     11729
     11724     11723     11726     11727     11724     11723     11726     11728
     11724     11723     11726     11729     11725     11723     11726     11727
     11725     11723     11726     11728     11725     11723     11726     11729
     11723     11726     11729     11730     11723     11726     11729     11731
     11723     11726     11729     11732     11727     11726     11729     11730
     11727     11726     11729     11731     11727     11726     11729     11732
     11728     11726     11729     11730     11728     11726     11729     11731
     11728     11726     11729     11732     11726     11729     11732     11733
     11726     11729     11732     11734     11726     11729     11732     11735
     11730     11729     11732     11733     11730     11729     11732     11734
     11730     11729     11732     11735     11731     11729     11732     11733
     11731     11729     11732     11734     11731     11729     11732     11735
     11729     11732     11735     11736     11729     11732     11735     11737
     11729     11732     11735     11738     11733     11732     11735     11736
     11733     11732     11735     11737     11733     11732     11735     11738
     11734     11732     11735     11736     11734     11732     11735     11737
     11734     11732     11735     11738     11732     11735     11738     11739
     11732     11735     11738     11740     11736     11735     11738     11739
     11736     11735     11738     11740     11737     11735     11738     11739
     11737     11735     11738     11740     11735     11738     11740     11741
     11735     11738     11740     11742     11739     11738     11740     11741
     11739     11738     11740     11742     11738     11740     11742     11743
     11738     11740     11742     11744     11738     11740     11742     11745
     11741     11740     11742     11743     11741     11740     11742     11744
     11741     11740     11742     11745     11740     11742     11745     11746
     11740     11742     11745     11747     11740     11742     11745     11748
     11743     11742     11745     11746     11743     11742     11745     11747
     11743     11742     11745     11748     11744     11742     11745     11746
     11744     11742     11745     11747     11744     11742     11745     11748
     11742     11745     11748     11749     11742     11745     11748     11750
     11742     11745     11748     11751     11746     11745     11748     11749
     11746     11745     11748     11750     11746     11745     11748     11751
     11747     11745     11748     11749     11747     11745     11748     11750
     11747     11745     11748     11751     11745     11748     11751     11752
     11745     11748     11751     11753     11745     11748     11751     11754
     11749     11748     11751     11752     11749     11748     11751     11753
     11749     11748     11751     11754     11750     11748     11751     11752
     11750     11748     11751     11753     11750     11748     11751     11754
     11748     11751     11754     11755     11748     11751     11754     11756
     11748     11751     11754     11757     11752     11751     11754     11755
     11752     11751     11754     11756     11752     11751     11754     11757
     11753     11751     11754     11755     11753     11751     11754     11756
     11753     11751     11754     11757     11751     11754     11757     11758
     11751     11754     11757     11759     11751     11754     11757     11760
     11755     11754     11757     11758     11755     11754     11757     11759
     11755     11754     11757     11760     11756     11754     11757     11758
     11756     11754     11757     11759     11756     11754     11757     11760
     11754     11757     11760     11761     11754     11757     11760     11762
     11754     11757     11760     11763     11758     11757     11760     11761
     11758     11757     11760     11762     11758     11757     11760     11763
     11759     11757     11760     11761     11759     11757     11760     11762
     11759     11757     11760     11763     11757     11760     11763     11764
     11757     11760     11763     11765     11757     11760     11763     11766
     11761     11760     11763     11764     11761     11760     11763     11765
     11761     11760     11763     11766     11762     11760     11763     11764
     11762     11760     11763     11765     11762     11760     11763     11766
     11768     11767     11771     11772     11768     11767     11771     11773
     11768     11767     11771     11774     11769     11767     11771     11772
     11769     11767     11771     11773     11769     11767     11771     11774
     11770     11767     11771     11772     11770     11767     11771     11773
     11770     11767     11771     11774     11767     11771     11774     11775
     11767     11771     11774     11776     11767     11771     11774     11777
     11772     11771     11774     11775     11772     11771     11774     11776
     11772     11771     11774     11777     11773     11771     11774     11775
     11773     11771     11774     11776     11773     11771     11774     11777
     11771     11774     11777     11778     11771     11774     11777     11779
     11771     11774     11777     11780     11775     11774     11777     11778
     11775     11774     11777     11779     11775     11774     11777     11780
     11776     11774     11777     11778     11776     11774     11777     11779
     11776     11774     11777     11780     11774     11777     11780     11781
     11774     11777     11780     11782     11774     11777     11780     11783
     11778     11777     11780     11781     11778     11777     11780     11782
     11778     11777     11780     11783     11779     11777     11780     11781
     11779     11777     11780     11782     11779     11777     11780     11783
     11777     11780     11783     11784     11777     11780     11783     11785
     11777     11780     11783     11786     11781     11780     11783     11784
     11781     11780     11783     11785     11781     11780     11783     11786
     11782     11780     11783     11784     11782     11780     11783     11785
     11782     11780     11783     11786     11780     11783     11786     11787
     11780     11783     11786     11788     11780     11783     11786     11789
     11784     11783     11786     11787     11784     11783     11786     11788
     11784     11783     11786     11789     11785     11783     11786     11787
     11785     11783     11786     11788     11785     11783     11786     11789
     11783     11786     11789     11790     11783     11786     11789     11791
     11783     11786     11789     11792     11787     11786     11789     11790
     11787     11786     11789     11791     11787     11786     11789     11792
     11788     11786     11789     11790     11788     11786     11789     11791
     11788     11786     11789     11792     11786     11789     11792     11793
     11786     11789     11792     11794     11786     11789     11792     11795
     11790     11789     11792     11793     11790     11789     11792     11794
     11790     11789     11792     11795     11791     11789     11792     11793
     11791     11789     11792     11794     11791     11789     11792     11795
     11789     11792     11795     11796     11789     11792     11795     11797
     11789     11792     11795     11798     11793     11792     11795     11796
     11793     11792     11795     11797     11793     11792     11795     11798
     11794     11792     11795     11796     11794     11792     11795     11797
     11794     11792     11795     11798     11792     11795     11798     11799
     11792     11795     11798     11800     11792     11795     11798     11801
     11796     11795     11798     11799     11796     11795     11798     11800
     11796     11795     11798     11801     11797     11795     11798     11799
     11797     11795     11798     11800     11797     11795     11798     11801
     11795     11798     11801     11802     11795     11798     11801     11803
     11795     11798     11801     11804     11799     11798     11801     11802
     11799     11798     11801     11803     11799     11798     11801     11804
     11800     11798     11801     11802     11800     11798     11801     11803
     11800     11798     11801     11804     11798     11801     11804     11805
     11798     11801     11804     11806     11798     11801     11804     11807
     11802     11801     11804     11805     11802     11801     11804     11806
     11802     11801     11804     11807     11803     11801     11804     11805
     11803     11801     11804     11806     11803     11801     11804     11807
     11801     11804     11807     11808     11801     11804     11807     11809
     11801     11804     11807     11810     11805     11804     11807     11808
     11805     11804     11807     11809     11805     11804     11807     11810
     11806     11804     11807     11808     11806     11804     11807     11809
     11806     11804     11807     11810     11804     11807     11810     11813
     11804     11807     11810     11811     11804     11807     11810     11812
     11808     11807     11810     11813     11808     11807     11810     11811
     11808     11807     11810     11812     11809     11807     11810     11813
     11809     11807     11810     11811     11809     11807     11810     11812
     11814     11813     11810     11807     11815     11813     11810     11807
     11814     11813     11810     11811     11815     11813     11810     11811
     11814     11813     11810     11812     11815     11813     11810     11812
     11810     11813     11815     11816     11814     11813     11815     11816
     11813     11815     11816     11817     11813     11815     11816     11818
     11813     11815     11816     11819     11815     11816     11819     11820
     11815     11816     11819     11821     11815     11816     11819     11848
     11817     11816     11819     11820     11817     11816     11819     11821
     11817     11816     11819     11848     11818     11816     11819     11820
     11818     11816     11819     11821     11818     11816     11819     11848
     11816     11819     11821     11822     11816     11819     11821     11823
     11816     11819     11821     11824     11816     11819     11848     11849
     11820     11819     11821     11822     11820     11819     11821     11823
     11820     11819     11821     11824     11820     11819     11848     11849
     11822     11821     11819     11848     11823     11821     11819     11848
     11824     11821     11819     11848     11821     11819     11848     11849
     11819     11821     11824     11825     11822     11821     11824     11825
     11823     11821     11824     11825     11821     11824     11825     11826
     11821     11824     11825     11846     11821     11824     11825     11847
     11824     11825     11826     11827     11827     11826     11825     11846
     11827     11826     11825     11847     11825     11826     11827     11828
     11825     11826     11827     11829     11825     11826     11827     11830
     11826     11827     11830     11831     11826     11827     11830     11832
     11826     11827     11830     11833     11828     11827     11830     11831
     11828     11827     11830     11832     11828     11827     11830     11833
     11829     11827     11830     11831     11829     11827     11830     11832
     11829     11827     11830     11833     11827     11830     11833     11834
     11827     11830     11833     11838     11827     11830     11833     11842
     11831     11830     11833     11834     11831     11830     11833     11838
     11831     11830     11833     11842     11832     11830     11833     11834
     11832     11830     11833     11838     11832     11830     11833     11842
     11830     11833     11834     11835     11830     11833     11834     11836
     11830     11833     11834     11837     11830     11833     11838     11839
     11830     11833     11838     11840     11830     11833     11838     11841
     11830     11833     11842     11843     11830     11833     11842     11844
     11830     11833     11842     11845     11835     11834     11833     11838
     11836     11834     11833     11838     11837     11834     11833     11838
     11834     11833     11838     11839     11834     11833     11838     11840
     11834     11833     11838     11841     11835     11834     11833     11842
     11836     11834     11833     11842     11837     11834     11833     11842
     11834     11833     11842     11843     11834     11833     11842     11844
     11834     11833     11842     11845     11839     11838     11833     11842
     11840     11838     11833     11842     11841     11838     11833     11842
     11838     11833     11842     11843     11838     11833     11842     11844
     11838     11833     11842     11845     11819     11848     11849     11851
     11819     11848     11849     11850     11852     11851     11849     11848
     11853     11851     11849     11848     11854     11851     11849     11848
     11852     11851     11849     11850     11853     11851     11849     11850
     11854     11851     11849     11850     11849     11851     11854     11855
     11849     11851     11854     11856     11849     11851     11854     11857
     11852     11851     11854     11855     11852     11851     11854     11856
     11852     11851     11854     11857     11853     11851     11854     11855
     11853     11851     11854     11856     11853     11851     11854     11857
     11851     11854     11857     11858     11851     11854     11857     11859
     11851     11854     11857     11860     11855     11854     11857     11858
     11855     11854     11857     11859     11855     11854     11857     11860
     11856     11854     11857     11858     11856     11854     11857     11859
     11856     11854     11857     11860     11854     11857     11860     11861
     11854     11857     11860     11862     11854     11857     11860     11863
     11858     11857     11860     11861     11858     11857     11860     11862
     11858     11857     11860     11863     11859     11857     11860     11861
     11859     11857     11860     11862     11859     11857     11860     11863
     11857     11860     11863     11864     11857     11860     11863     11865
     11857     11860     11863     11866     11861     11860     11863     11864
     11861     11860     11863     11865     11861     11860     11863     11866
     11862     11860     11863     11864     11862     11860     11863     11865
     11862     11860     11863     11866     11860     11863     11866     11867
     11860     11863     11866     11868     11860     11863     11866     11869
     11864     11863     11866     11867     11864     11863     11866     11868
     11864     11863     11866     11869     11865     11863     11866     11867
     11865     11863     11866     11868     11865     11863     11866     11869
     11863     11866     11869     11870     11863     11866     11869     11871
     11863     11866     11869     11872     11867     11866     11869     11870
     11867     11866     11869     11871     11867     11866     11869     11872
     11868     11866     11869     11870     11868     11866     11869     11871
     11868     11866     11869     11872     11866     11869     11872     11873
     11866     11869     11872     11874     11870     11869     11872     11873
     11870     11869     11872     11874     11871     11869     11872     11873
     11871     11869     11872     11874     11869     11872     11874     11875
     11869     11872     11874     11876     11873     11872     11874     11875
     11873     11872     11874     11876     11872     11874     11876     11877
     11872     11874     11876     11878     11872     11874     11876     11879
     11875     11874     11876     11877     11875     11874     11876     11878
     11875     11874     11876     11879     11874     11876     11879     11880
     11874     11876     11879     11881     11874     11876     11879     11882
     11877     11876     11879     11880     11877     11876     11879     11881
     11877     11876     11879     11882     11878     11876     11879     11880
     11878     11876     11879     11881     11878     11876     11879     11882
     11876     11879     11882     11883     11876     11879     11882     11884
     11876     11879     11882     11885     11880     11879     11882     11883
     11880     11879     11882     11884     11880     11879     11882     11885
     11881     11879     11882     11883     11881     11879     11882     11884
     11881     11879     11882     11885     11879     11882     11885     11886
     11879     11882     11885     11887     11879     11882     11885     11888
     11883     11882     11885     11886     11883     11882     11885     11887
     11883     11882     11885     11888     11884     11882     11885     11886
     11884     11882     11885     11887     11884     11882     11885     11888
     11882     11885     11888     11889     11882     11885     11888     11890
     11882     11885     11888     11891     11886     11885     11888     11889
     11886     11885     11888     11890     11886     11885     11888     11891
     11887     11885     11888     11889     11887     11885     11888     11890
     11887     11885     11888     11891     11885     11888     11891     11892
     11885     11888     11891     11893     11885     11888     11891     11894
     11889     11888     11891     11892     11889     11888     11891     11893
     11889     11888     11891     11894     11890     11888     11891     11892
     11890     11888     11891     11893     11890     11888     11891     11894
     11888     11891     11894     11895     11888     11891     11894     11896
     11888     11891     11894     11897     11892     11891     11894     11895
     11892     11891     11894     11896     11892     11891     11894     11897
     11893     11891     11894     11895     11893     11891     11894     11896
     11893     11891     11894     11897     11891     11894     11897     11898
     11891     11894     11897     11899     11891     11894     11897     11900
     11895     11894     11897     11898     11895     11894     11897     11899
     11895     11894     11897     11900     11896     11894     11897     11898
     11896     11894     11897     11899     11896     11894     11897     11900

       371 !NIMPHI: impropers
         5        25        23        24        23        27        25        26
        27        32        30        31        30        33        32        42
        42        46        44        45        44        47        46        56
        56        60        58        59        58        62        60        61
        70        75        73        74        73        76        75        79
        75        77        76        78        75        80        79        81
        62        84        82        83        82        86        84        85
        94        99        97        98       100       103        99        97
        99       101       100       102        99       104       103       105
        86       107       106       108       152       156       155       157
       193       192       191       190       216       211       214       215
       214       218       216       217       286       290       289       291
       327       326       325       324       350       345       348       349
       348       352       350       351       420       424       423       425
       461       460       459       458       484       479       482       483
       482       486       484       485       554       558       557       559
       595       594       593       592       618       613       616       617
       616       620       618       619       688       692       691       693
       729       728       727       726       752       747       750       751
       750       754       752       753       822       826       825       827
       863       862       861       860       886       881       884       885
       884       888       886       887       956       960       959       961
       997       996       995       994      1020      1015      1018      1019
      1018      1022      1020      1021      1090      1094      1093      1095
      1131      1130      1129      1128      1154      1149      1152      1153
      1152      1156      1154      1155      1224      1228      1227      1229
      1265      1264      1263      1262      1288      1283      1286      1287
      1286      1290      1288      1289      1358      1362      1361      1363
      1399      1398      1397      1396      1422      1417      1420      1421
      1420      1424      1422      1423      1492      1496      1495      1497
      1533      1532      1531      1530      1556      1551      1554      1555
      1554      1558      1556      1557      1626      1630      1629      1631
      1667      1666      1665      1664      1690      1685      1688      1689
      1688      1692      1690      1691      1760      1764      1763      1765
      1801      1800      1799      1798      1824      1819      1822      1823
      1822      1826      1824      1825      1894      1898      1897      1899
      1935      1934      1933      1932      1958      1953      1956      1957
      1956      1960      1958      1959      2028      2032      2031      2033
      2069      2068      2067      2066      2092      2087      2090      2091
      2090      2094      2092      2093      2162      2166      2165      2167
      2203      2202      2201      2200      2226      2221      2224      2225
      2224      2228      2226      2227      2296      2300      2299      2301
      2337      2336      2335      2334      2360      2355      2358      2359
      2358      2362      2360      2361      2430      2434      2433      2435
      2471      2470      2469      2468      2494      2489      2492      2493
      2492      2496      2494      2495      2564      2568      2567      2569
      2605      2604      2603      2602      2628      2623      2626      2627
      2626      2630      2628      2629      2698      2702      2701      2703
      2739      2738      2737      2736      2762      2757      2760      2761
      2760      2764      2762      2763      2832      2836      2835      2837
      2873      2872      2871      2870      2896      2891      2894      2895
      2894      2898      2896      2897      2966      2970      2969      2971
      3007      3006      3005      3004      3030      3025      3028      3029
      3028      3032      3030      3031      3100      3104      3103      3105
      3141      3140      3139      3138      3164      3159      3162      3163
      3162      3166      3164      3165      3234      3238      3237      3239
      3275      3274      3273      3272      3298      3293      3296      3297
      3296      3300      3298      3299      3368      3372      3371      3373
      3409      3408      3407      3406      3432      3427      3430      3431
      3430      3434      3432      3433      3502      3506      3505      3507
      3543      3542      3541      3540      3566      3561      3564      3565
      3564      3568      3566      3567      3636      3640      3639      3641
      3677      3676      3675      3674      3700      3695      3698      3699
      3698      3702      3700      3701      3770      3774      3773      3775
      3811      3810      3809      3808      3834      3829      3832      3833
      3832      3836      3834      3835      3904      3908      3907      3909
      3945      3944      3943      3942      3968      3963      3966      3967
      3966      3970      3968      3969      4038      4042      4041      4043
      4079      4078      4077      4076      4102      4097      4100      4101
      4100      4104      4102      4103      4172      4176      4175      4177
      4213      4212      4211      4210      4236      4231      4234      4235
      4234      4238      4236      4237      4306      4310      4309      4311
      4347      4346      4345      4344      4370      4365      4368      4369
      4368      4372      4370      4371      4440      4444      4443      4445
      4481      4480      4479      4478      4504      4499      4502      4503
      4502      4506      4504      4505      4574      4578      4577      4579
      4615      4614      4613      4612      4638      4633      4636      4637
      4636      4640      4638      4639      4708      4712      4711      4713
      4749      4748      4747      4746      4772      4767      4770      4771
      4770      4774      4772      4773      4842      4846      4845      4847
      4883      4882      4881      4880      4906      4901      4904      4905
      4904      4908      4906      4907      4976      4980      4979      4981
      5017      5016      5015      5014      5040      5035      5038      5039
      5038      5042      5040      5041      5110      5114      5113      5115
      5151      5150      5149      5148      5174      5169      5172      5173
      5172      5176      5174      5175      5244      5248      5247      5249
      5285      5284      5283      5282      5308      5303      5306      5307
      5306      5310      5308      5309      5378      5382      5381      5383
      5419      5418      5417      5416      5442      5437      5440      5441
      5440      5444      5442      5443      5512      5516      5515      5517
      5553      5552      5551      5550      5576      5571      5574      5575
      5574      5578      5576      5577      5646      5650      5649      5651
      5687      5686      5685      5684      5710      5705      5708      5709
      5708      5712      5710      5711      5780      5784      5783      5785
      5821      5820      5819      5818      5844      5839      5842      5843
      5842      5846      5844      5845      5914      5918      5917      5919
      5955      5954      5953      5952      5978      5973      5976      5977
      5976      5980      5978      5979      6048      6052      6051      6053
      6089      6088      6087      6086      6112      6107      6110      6111
      6110      6114      6112      6113      6182      6186      6185      6187
      6223      6222      6221      6220      6246      6241      6244      6245
      6244      6248      6246      6247      6316      6320      6319      6321
      6357      6356      6355      6354      6380      6375      6378      6379
      6378      6382      6380      6381      6450      6454      6453      6455
      6491      6490      6489      6488      6514      6509      6512      6513
      6512      6516      6514      6515      6584      6588      6587      6589
      6625      6624      6623      6622      6648      6643      6646      6647
      6646      6650      6648      6649      6718      6722      6721      6723
      6759      6758      6757      6756      6782      6777      6780      6781
      6780      6784      6782      6783      6852      6856      6855      6857
      6893      6892      6891      6890      6916      6911      6914      6915
      6914      6918      6916      6917      6986      6990      6989      6991
      7027      7026      7025      7024      7050      7045      7048      7049
      7048      7052      7050      7051      7120      7124      7123      7125
      7161      7160      7159      7158      7184      7179      7182      7183
      7182      7186      7184      7185      7254      7258      7257      7259
      7295      7294      7293      7292      7318      7313      7316      7317
      7316      7320      7318      7319      7388      7392      7391      7393
      7429      7428      7427      7426      7452      7447      7450      7451
      7450      7454      7452      7453      7522      7526      7525      7527
      7563      7562      7561      7560      7586      7581      7584      7585
      7584      7588      7586      7587      7656      7660      7659      7661
      7697      7696      7695      7694      7720      7715      7718      7719
      7718      7722      7720      7721      7790      7794      7793      7795
      7831      7830      7829      7828      7854      7849      7852      7853
      7852      7856      7854      7855      7924      7928      7927      7929
      7965      7964      7963      7962      7988      7983      7986      7987
      7986      7990      7988      7989      8058      8062      8061      8063
      8099      8098      8097      8096      8122      8117      8120      8121
      8120      8124      8122      8123      8192      8196      8195      8197
      8233      8232      8231      8230      8256      8251      8254      8255
      8254      8258      8256      8257      8326      8330      8329      8331
      8367      8366      8365      8364      8390      8385      8388      8389
      8388      8392      8390      8391      8460      8464      8463      8465
      8501      8500      8499      8498      8524      8519      8522      8523
      8522      8526      8524      8525      8594      8598      8597      8599
      8635      8634      8633      8632      8658      8653      8656      8657
      8656      8660      8658      8659      8728      8732      8731      8733
      8769      8768      8767      8766      8792      8787      8790      8791
      8790      8794      8792      8793      8862      8866      8865      8867
      8903      8902      8901      8900      8926      8921      8924      8925
      8924      8928      8926      8927      8996      9000      8999      9001
      9037      9036      9035      9034      9060      9055      9058      9059
      9058      9062      9060      9061      9130      9134      9133      9135
      9171      9170      9169      9168      9194      9189      9192      9193
      9192      9196      9194      9195      9264      9268      9267      9269
      9305      9304      9303      9302      9328      9323      9326      9327
      9326      9330      9328      9329      9398      9402      9401      9403
      9439      9438      9437      9436      9462      9457      9460      9461
      9460      9464      9462      9463      9532      9536      9535      9537
      9573      9572      9571      9570      9596      9591      9594      9595
      9594      9598      9596      9597      9666      9670      9669      9671
      9707      9706      9705      9704      9730      9725      9728      9729
      9728      9732      9730      9731      9800      9804      9803      9805
      9841      9840      9839      9838      9864      9859      9862      9863
      9862      9866      9864      9865      9934      9938      9937      9939
      9975      9974      9973      9972      9998      9993      9996      9997
      9996     10000      9998      9999     10068     10072     10071     10073
     10109     10108     10107     10106     10132     10127     10130     10131
     10130     10134     10132     10133     10202     10206     10205     10207
     10243     10242     10241     10240     10266     10261     10264     10265
     10264     10268     10266     10267     10336     10340     10339     10341
     10377     10376     10375     10374     10400     10395     10398     10399
     10398     10402     10400     10401     10470     10474     10473     10475
     10511     10510     10509     10508     10534     10529     10532     10533
     10532     10536     10534     10535     10604     10608     10607     10609
     10645     10644     10643     10642     10668     10663     10666     10667
     10666     10670     10668     10669     10738     10742     10741     10743
     10779     10778     10777     10776     10802     10797     10800     10801
     10800     10804     10802     10803     10872     10876     10875     10877
     10913     10912     10911     10910     10936     10931     10934     10935
     10934     10938     10936     10937     11006     11010     11009     11011
     11047     11046     11045     11044     11070     11065     11068     11069
     11068     11072     11070     11071     11140     11144     11143     11145
     11181     11180     11179     11178     11204     11199     11202     11203
     11202     11206     11204     11205     11274     11278     11277     11279
     11315     11314     11313     11312     11338     11333     11336     11337
     11336     11340     11338     11339     11408     11412     11411     11413
     11449     11448     11447     11446     11472     11467     11470     11471
     11470     11474     11472     11473     11542     11546     11545     11547
     11583     11582     11581     11580     11606     11601     11604     11605
     11604     11608     11606     11607     11676     11680     11679     11681
     11717     11716     11715     11714     11740     11735     11738     11739
     11738     11742     11740     11741     11810     11814     11813     11815
     11851     11850     11849     11848     11874     11869     11872     11873
     11872     11876     11874     11875

         0 !NDON: donors


         0 !NACC: acceptors


         0 !NNB

         0         0         0         0         0         0         0         0
         0         0         0         0         0         0         0         0
         0         0         0         0         0         0         0         0
         0         0         0         0         0         0         0         0
         0         0         0         0         0         0         0         0
         0         0         0         0         0         0         0         0
         0         0         0         0         0         0         0         0
         0         0         0         0         0         0         0         0
         0         0         0         0         0         0         0         0
         0         0         0         0         0         0         0         0
         0         0         0         0         0         0         0         0
         0         0         0         0         0         0         0         0
         0         0         0         0         0         0         0         0
         0         0         0         0         0         0         0         0
         0         0         0         0         0         0         0         0
         0         0         0         0         0         0         0         0
         0         0         0         0         0         0         0         0
         0         0         0         0         0         0         0         0
         0         0         0         0         0         0         0         0
         0         0         0         0         0         0         0         0
         0         0         0         0         0         0         0         0
         0         0         0         0         0         0         0         0
         0         0         0         0         0         0         0         0
         0         0         0         0         0         0         0         0
         0         0         0         0         0         0         0         0
         0         0         0         0         0         0         0         0
         0         0         0         0         0         0         0         0
         0         0         0         0         0         0         0         0
         0         0         0         0         0         0         0         0
         0         0         0         0         0         0         0         0
         0         0         0         0         0         0         0         0
         0         0         0         0         0         0         0         0
         0         0         0         0         0         0         0         0
         0         0         0         0         0         0         0         0
         0         0         0         0         0         0         0         0
         0         0         0         0         0         0         0         0
         0         0         0         0         0         0         0         0
         0         0         0         0         0         0         0         0
         0         0         0         0         0         0         0         0
         0         0         0         0         0         0         0         0
         0         0         0         0         0         0         0         0
         0         0         0         0         0         0         0         0
         0         0         0         0         0         0         0         0
         0         0         0         0         0         0         0         0
         0         0         0         0         0         0         0         0
         0         0         0         0         0         0         0         0
         0         0         0         0         0         0         0         0
         0         0         0         0         0         0         0         0
         0         0         0         0         0         0         0         0
         0         0         0         0         0         0         0         0
         0         0         0         0         0         0         0         0
         0         0         0         0         0         0         0         0
         0         0         0         0         0         0         0         0
         0         0         0         0         0         0         0         0
         0         0         0         0         0         0         0         0
         0         0         0         0         0         0         0         0
         0         0         0         0         0         0         0         0
         0         0         0         0         0         0         0         0
         0         0         0         0         0         0         0         0
         0         0         0         0         0         0         0         0
         0         0         0         0         0         0         0         0
         0         0         0         0         0         0         0         0
         0         0         0         0         0         0         0         0
         0         0         0         0         0         0         0         0
         0         0         0         0         0         0         0         0
         0         0         0         0         0         0         0         0
         0         0         0         0         0         0         0         0
         0         0         0         0         0         0         0         0
         0         0         0         0         0         0         0         0
         0         0         0         0         0         0         0         0
         0         0         0         0         0         0         0         0
         0         0         0         0         0         0         0         0
         0         0         0         0         0         0         0         0
         0         0         0         0         0         0         0         0
         0         0         0         0         0         0         0         0
         0         0         0         0         0         0         0         0
         0         0         0         0         0         0         0         0
         0         0         0         0         0         0         0         0
         0         0         0         0         0         0         0         0
         0         0         0         0         0         0         0         0
         0         0         0         0         0         0         0         0
         0         0         0         0         0         0         0         0
         0         0         0         0         0         0         0         0
         0         0         0         0         0         0         0         0
         0         0         0         0         0         0         0         0
         0         0         0         0         0         0         0         0
         0         0         0         0         0         0         0         0
         0         0         0         0         0         0         0         0
         0         0         0         0         0         0         0         0
         0         0         0         0         0         0         0         0
         0         0         0         0         0         0         0         0
         0         0         0         0         0         0         0         0
         0         0         0         0         0         0         0         0
         0         0         0         0         0         0         0         0
         0         0         0         0         0         0         0         0
         0         0         0         0         0         0         0         0
         0         0         0         0         0         0         0         0
         0         0         0         0         0         0         0         0
         0         0         0         0         0         0         0         0
         0         0         0         0         0         0         0         0
         0         0         0         0         0         0         0         0
         0         0         0         0         0         0         0         0
         0         0         0         0         0         0         0         0
         0         0         0         0         0         0         0         0
         0         0         0         0         0         0         0         0
         0         0         0         0         0         0         0         0
         0         0         0         0         0         0         0         0
         0         0         0         0         0         0         0         0
         0         0         0         0         0         0         0         0
         0         0         0         0         0         0         0         0
         0         0         0         0         0         0         0         0
         0         0         0         0         0         0         0         0
         0         0         0         0         0         0         0         0
         0         0         0         0         0         0         0         0
         0         0         0         0         0         0         0         0
         0         0         0         0         0         0         0         0
         0         0         0         0         0         0         0         0
         0         0         0         0         0         0         0         0
         0         0         0         0         0         0         0         0
         0         0         0         0         0         0         0         0
         0         0         0         0         0         0         0         0
         0         0         0         0         0         0         0         0
         0         0         0         0         0         0         0         0
         0         0         0         0         0         0         0         0
         0         0         0         0         0         0         0         0
         0         0         0         0         0         0         0         0
         0         0         0         0         0         0         0         0
         0         0         0         0         0         0         0         0
         0         0         0         0         0         0         0         0
         0         0         0         0         0         0         0         0
         0         0         0         0         0         0         0         0
         0         0         0         0         0         0         0         0
         0         0         0         0         0         0         0         0
         0         0         0         0         0         0         0         0
         0         0         0         0         0         0         0         0
         0         0         0         0         0         0         0         0
         0         0         0         0         0         0         0         0
         0         0         0         0         0         0         0         0
         0         0         0         0         0         0         0         0
         0         0         0         0         0         0         0         0
         0         0         0         0         0         0         0         0
         0         0         0         0         0         0         0         0
         0         0         0         0         0         0         0         0
         0         0         0         0         0         0         0         0
         0         0         0         0         0         0         0         0
         0         0         0         0         0         0         0         0
         0         0         0         0         0         0         0         0
         0         0         0         0         0         0         0         0
         0         0         0         0         0         0         0         0
         0         0         0         0         0         0         0         0
         0         0         0         0         0         0         0         0
         0         0         0         0         0         0         0         0
         0         0         0         0         0         0         0         0
         0         0         0         0         0         0         0         0
         0         0         0         0         0         0         0         0
         0         0         0         0         0         0         0         0
         0         0         0         0         0         0         0         0
         0         0         0         0         0         0         0         0
         0         0         0         0         0         0         0         0
         0         0         0         0         0         0         0         0
         0         0         0         0         0         0         0         0
         0         0         0         0         0         0         0         0
         0         0         0         0         0         0         0         0
         0         0         0         0         0         0         0         0
         0         0         0         0         0         0         0         0
         0         0         0         0         0         0         0         0
         0         0         0         0         0         0         0         0
         0         0         0         0         0         0         0         0
         0         0         0         0         0         0         0         0
         0         0         0         0         0         0         0         0
         0         0         0         0         0         0         0         0
         0         0         0         0         0         0         0         0
         0         0         0         0         0         0         0         0
         0         0         0         0         0         0         0         0
         0         0         0         0         0         0         0         0
         0         0         0         0         0         0         0         0
         0         0         0         0         0         0         0         0
         0         0         0         0         0         0         0         0
         0         0         0         0         0         0         0         0
         0         0         0         0         0         0         0         0
         0         0         0         0         0         0         0         0
         0         0         0         0         0         0         0         0
         0         0         0         0         0         0         0         0
         0         0         0         0         0         0         0         0
         0         0         0         0         0         0         0         0
         0         0         0         0         0         0         0         0
         0         0         0         0         0         0         0         0
         0         0         0         0         0         0         0         0
         0         0         0         0         0         0         0         0
         0         0         0         0         0         0         0         0
         0         0         0         0         0         0         0         0
         0         0         0         0         0         0         0         0
         0         0         0         0         0         0         0         0
         0         0         0         0         0         0         0         0
         0         0         0         0         0         0         0         0
         0         0         0         0         0         0         0         0
         0         0         0         0         0         0         0         0
         0         0         0         0         0         0         0         0
         0         0         0         0         0         0         0         0
         0         0         0         0         0         0         0         0
         0         0         0         0         0         0         0         0
         0         0         0         0         0         0         0         0
         0         0         0         0         0         0         0         0
         0         0         0         0         0         0         0         0
         0         0         0         0         0         0         0         0
         0         0         0         0         0         0         0         0
         0         0         0         0         0         0         0         0
         0         0         0         0         0         0         0         0
         0         0         0         0         0         0         0         0
         0         0         0         0         0         0         0         0
         0         0         0         0         0         0         0         0
         0         0         0         0         0         0         0         0
         0         0         0         0         0         0         0         0
         0         0         0         0         0         0         0         0
         0         0         0         0         0         0         0         0
         0         0         0         0         0         0         0         0
         0         0         0         0         0         0         0         0
         0         0         0         0         0         0         0         0
         0         0         0         0         0         0         0         0
         0         0         0         0         0         0         0         0
         0         0         0         0         0         0         0         0
         0         0         0         0         0         0         0         0
         0         0         0         0         0         0         0         0
         0         0         0         0         0         0         0         0
         0         0         0         0         0         0         0         0
         0         0         0         0         0         0         0         0
         0         0         0         0         0         0         0         0
         0         0         0         0         0         0         0         0
         0         0         0         0         0         0         0         0
         0         0         0         0         0         0         0         0
         0         0         0         0         0         0         0         0
         0         0         0         0         0         0         0         0
         0         0         0         0         0         0         0         0
         0         0         0         0         0         0         0         0
         0         0         0         0         0         0         0         0
         0         0         0         0         0         0         0         0
         0         0         0         0         0         0         0         0
         0         0         0         0         0         0         0         0
         0         0         0         0         0         0         0         0
         0         0         0         0         0         0         0         0
         0         0         0         0         0         0         0         0
         0         0         0         0         0         0         0         0
         0         0         0         0         0         0         0         0
         0         0         0         0         0         0         0         0
         0         0         0         0         0         0         0         0
         0         0         0         0         0         0         0         0
         0         0         0         0         0         0         0         0
         0         0         0         0         0         0         0         0
         0         0         0         0         0         0         0         0
         0         0         0         0         0         0         0         0
         0         0         0         0         0         0         0         0
         0         0         0         0         0         0         0         0
         0         0         0         0         0         0         0         0
         0         0         0         0         0         0         0         0
         0         0         0         0         0         0         0         0
         0         0         0         0         0         0         0         0
         0         0         0         0         0         0         0         0
         0         0         0         0         0         0         0         0
         0         0         0         0         0         0         0         0
         0         0         0         0         0         0         0         0
         0         0         0         0         0         0         0         0
         0         0         0         0         0         0         0         0
         0         0         0         0         0         0         0         0
         0         0         0         0         0         0         0         0
         0         0         0         0         0         0         0         0
         0         0         0         0         0         0         0         0
         0         0         0         0         0         0         0         0
         0         0         0         0         0         0         0         0
         0         0         0         0         0         0         0         0
         0         0         0         0         0         0         0         0
         0         0         0         0         0         0         0         0
         0         0         0         0         0         0         0         0
         0         0         0         0         0         0         0         0
         0         0         0         0         0         0         0         0
         0         0         0         0         0         0         0         0
         0         0         0         0         0         0         0         0
         0         0         0         0         0         0         0         0
         0         0         0         0         0         0         0         0
         0         0         0         0         0         0         0         0
         0         0         0         0         0         0         0         0
         0         0         0         0         0         0         0         0
         0         0         0         0         0         0         0         0
         0         0         0         0         0         0         0         0
         0         0         0         0         0         0         0         0
         0         0         0         0         0         0         0         0
         0         0         0         0         0         0         0         0
         0         0         0         0         0         0         0         0
         0         0         0         0         0         0         0         0
         0         0         0         0         0         0         0         0
         0         0         0         0         0         0         0         0
         0         0         0         0         0         0         0         0
         0         0         0         0         0         0         0         0
         0         0         0         0         0         0         0         0
         0         0         0         0         0         0         0         0
         0         0         0         0         0         0         0         0
         0         0         0         0         0         0         0         0
         0         0         0         0         0         0         0         0
         0         0         0         0         0         0         0         0
         0         0         0         0         0         0         0         0
         0         0         0         0         0         0         0         0
         0         0         0         0         0         0         0         0
         0         0         0         0         0         0         0         0
         0         0         0         0         0         0         0         0
         0         0         0         0         0         0         0         0
         0         0         0         0         0         0         0         0
         0         0         0         0         0         0         0         0
         0         0         0         0         0         0         0         0
         0         0         0         0         0         0         0         0
         0         0         0         0         0         0         0         0
         0         0         0         0         0         0         0         0
         0         0         0         0         0         0         0         0
         0         0         0         0         0         0         0         0
         0         0         0         0         0         0         0         0
         0         0         0         0         0         0         0         0
         0         0         0         0         0         0         0         0
         0         0         0         0         0         0         0         0
         0         0         0         0         0         0         0         0
         0         0         0         0         0         0         0         0
         0         0         0         0         0         0         0         0
         0         0         0         0         0         0         0         0
         0         0         0         0         0         0         0         0
         0         0         0         0         0         0         0         0
         0         0         0         0         0         0         0         0
         0         0         0         0         0         0         0         0
         0         0         0         0         0         0         0         0
         0         0         0         0         0         0         0         0
         0         0         0         0         0         0         0         0
         0         0         0         0         0         0         0         0
         0         0         0         0         0         0         0         0
         0         0         0         0         0         0         0         0
         0         0         0         0         0         0         0         0
         0         0         0         0         0         0         0         0
         0         0         0         0         0         0         0         0
         0         0         0         0         0         0         0         0
         0         0         0         0         0         0         0         0
         0         0         0         0         0         0         0         0
         0         0         0         0         0         0         0         0
         0         0         0         0         0         0         0         0
         0         0         0         0         0         0         0         0
         0         0         0         0         0         0         0         0
         0         0         0         0         0         0         0         0
         0         0         0         0         0         0         0         0
         0         0         0         0         0         0         0         0
         0         0         0         0         0         0         0         0
         0         0         0         0         0         0         0         0
         0         0         0         0         0         0         0         0
         0         0         0         0         0         0         0         0
         0         0         0         0         0         0         0         0
         0         0         0         0         0         0         0         0
         0         0         0         0         0         0         0         0
         0         0         0         0         0         0         0         0
         0         0         0         0         0         0         0         0
         0         0         0         0         0         0         0         0
         0         0         0         0         0         0         0         0
         0         0         0         0         0         0         0         0
         0         0         0         0         0         0         0         0
         0         0         0         0         0         0         0         0
         0         0         0         0         0         0         0         0
         0         0         0         0         0         0         0         0
         0         0         0         0         0         0         0         0
         0         0         0         0         0         0         0         0
         0         0         0         0         0         0         0         0
         0         0         0         0         0         0         0         0
         0         0         0         0         0         0         0         0
         0         0         0         0         0         0         0         0
         0         0         0         0         0         0         0         0
         0         0         0         0         0         0         0         0
         0         0         0         0         0         0         0         0
         0         0         0         0         0         0         0         0
         0         0         0         0         0         0         0         0
         0         0         0         0         0         0         0         0
         0         0         0         0         0         0         0         0
         0         0         0         0         0         0         0         0
         0         0         0         0         0         0         0         0
         0         0         0         0         0         0         0         0
         0         0         0         0         0         0         0         0
         0         0         0         0         0         0         0         0
         0         0         0         0         0         0         0         0
         0         0         0         0         0         0         0         0
         0         0         0         0         0         0         0         0
         0         0         0         0         0         0         0         0
         0         0         0         0         0         0         0         0
         0         0         0         0         0         0         0         0
         0         0         0         0         0         0         0         0
         0         0         0         0         0         0         0         0
         0         0         0         0         0         0         0         0
         0         0         0         0         0         0         0         0
         0         0         0         0         0         0         0         0
         0         0         0         0         0         0         0         0
         0         0         0         0         0         0         0         0
         0         0         0         0         0         0         0         0
         0         0         0         0         0         0         0         0
         0         0         0         0         0         0         0         0
         0         0         0         0         0         0         0         0
         0         0         0         0         0         0         0         0
         0         0         0         0         0         0         0         0
         0         0         0         0         0         0         0         0
         0         0         0         0         0         0         0         0
         0         0         0         0         0         0         0         0
         0         0         0         0         0         0         0         0
         0         0         0         0         0         0         0         0
         0         0         0         0         0         0         0         0
         0         0         0         0         0         0         0         0
         0         0         0         0         0         0         0         0
         0         0         0         0         0         0         0         0
         0         0         0         0         0         0         0         0
         0         0         0         0         0         0         0         0
         0         0         0         0         0         0         0         0
         0         0         0         0         0         0         0         0
         0         0         0         0         0         0         0         0
         0         0         0         0         0         0         0         0
         0         0         0         0         0         0         0         0
         0         0         0         0         0         0         0         0
         0         0         0         0         0         0         0         0
         0         0         0         0         0         0         0         0
         0         0         0         0         0         0         0         0
         0         0         0         0         0         0         0         0
         0         0         0         0         0         0         0         0
         0         0         0         0         0         0         0         0
         0         0         0         0         0         0         0         0
         0         0         0         0         0         0         0         0
         0         0         0         0         0         0         0         0
         0         0         0         0         0         0         0         0
         0         0         0         0         0         0         0         0
         0         0         0         0         0         0         0         0
         0         0         0         0         0         0         0         0
         0         0         0         0         0         0         0         0
         0         0         0         0         0         0         0         0
         0         0         0         0         0         0         0         0
         0         0         0         0         0         0         0         0
         0         0         0         0         0         0         0         0
         0         0         0         0         0         0         0         0
         0         0         0         0         0         0         0         0
         0         0         0         0         0         0         0         0
         0         0         0         0         0         0         0         0
         0         0         0         0         0         0         0         0
         0         0         0         0         0         0         0         0
         0         0         0         0         0         0         0         0
         0         0         0         0         0         0         0         0
         0         0         0         0         0         0         0         0
         0         0         0         0         0         0         0         0
         0         0         0         0         0         0         0         0
         0         0         0         0         0         0         0         0
         0         0         0         0         0         0         0         0
         0         0         0         0         0         0         0         0
         0         0         0         0         0         0         0         0
         0         0         0         0         0         0         0         0
         0         0         0         0         0         0         0         0
         0         0         0         0         0         0         0         0
         0         0         0         0         0         0         0         0
         0         0         0         0         0         0         0         0
         0         0         0         0         0         0         0         0
         0         0         0         0         0         0         0         0
         0         0         0         0         0         0         0         0
         0         0         0         0         0         0         0         0
         0         0         0         0         0         0         0         0
         0         0         0         0         0         0         0         0
         0         0         0         0         0         0         0         0
         0         0         0         0         0         0         0         0
         0         0         0         0         0         0         0         0
         0         0         0         0         0         0         0         0
         0         0         0         0         0         0         0         0
         0         0         0         0         0         0         0         0
         0         0         0         0         0         0         0         0
         0         0         0         0         0         0         0         0
         0         0         0         0         0         0         0         0
         0         0         0         0         0         0         0         0
         0         0         0         0         0         0         0         0
         0         0         0         0         0         0         0         0
         0         0         0         0         0         0         0         0
         0         0         0         0         0         0         0         0
         0         0         0         0         0         0         0         0
         0         0         0         0         0         0         0         0
         0         0         0         0         0         0         0         0
         0         0         0         0         0         0         0         0
         0         0         0         0         0         0         0         0
         0         0         0         0         0         0         0         0
         0         0         0         0         0         0         0         0
         0         0         0         0         0         0         0         0
         0         0         0         0         0         0         0         0
         0         0         0         0         0         0         0         0
         0         0         0         0         0         0         0         0
         0         0         0         0         0         0         0         0
         0         0         0         0         0         0         0         0
         0         0         0         0         0         0         0         0
         0         0         0         0         0         0         0         0
         0         0         0         0         0         0         0         0
         0         0         0         0         0         0         0         0
         0         0         0         0         0         0         0         0
         0         0         0         0         0         0         0         0
         0         0         0         0         0         0         0         0
         0         0         0         0         0         0         0         0
         0         0         0         0         0         0         0         0
         0         0         0         0         0         0         0         0
         0         0         0         0         0         0         0         0
         0         0         0         0         0         0         0         0
         0         0         0         0         0         0         0         0
         0         0         0         0         0         0         0         0
         0         0         0         0         0         0         0         0
         0         0         0         0         0         0         0         0
         0         0         0         0         0         0         0         0
         0         0         0         0         0         0         0         0
         0         0         0         0         0         0         0         0
         0         0         0         0         0         0         0         0
         0         0         0         0         0         0         0         0
         0         0         0         0         0         0         0         0
         0         0         0         0         0         0         0         0
         0         0         0         0         0         0         0         0
         0         0         0         0         0         0         0         0
         0         0         0         0         0         0         0         0
         0         0         0         0         0         0         0         0
         0         0         0         0         0         0         0         0
         0         0         0         0         0         0         0         0
         0         0         0         0         0         0         0         0
         0         0         0         0         0         0         0         0
         0         0         0         0         0         0         0         0
         0         0         0         0         0         0         0         0
         0         0         0         0         0         0         0         0
         0         0         0         0         0         0         0         0
         0         0         0         0         0         0         0         0
         0         0         0         0         0         0         0         0
         0         0         0         0         0         0         0         0
         0         0         0         0         0         0         0         0
         0         0         0         0         0         0         0         0
         0         0         0         0         0         0         0         0
         0         0         0         0         0         0         0         0
         0         0         0         0         0         0         0         0
         0         0         0         0         0         0         0         0
         0         0         0         0         0         0         0         0
         0         0         0         0         0         0         0         0
         0         0         0         0         0         0         0         0
         0         0         0         0         0         0         0         0
         0         0         0         0         0         0         0         0
         0         0         0         0         0         0         0         0
         0         0         0         0         0         0         0         0
         0         0         0         0         0         0         0         0
         0         0         0         0         0         0         0         0
         0         0         0         0         0         0         0         0
         0         0         0         0         0         0         0         0
         0         0         0         0         0         0         0         0
         0         0         0         0         0         0         0         0
         0         0         0         0         0         0         0         0
         0         0         0         0         0         0         0         0
         0         0         0         0         0         0         0         0
         0         0         0         0         0         0         0         0
         0         0         0         0         0         0         0         0
         0         0         0         0         0         0         0         0
         0         0         0         0         0         0         0         0
         0         0         0         0         0         0         0         0
         0         0         0         0         0         0         0         0
         0         0         0         0         0         0         0         0
         0         0         0         0         0         0         0         0
         0         0         0         0         0         0         0         0
         0         0         0         0         0         0         0         0
         0         0         0         0         0         0         0         0
         0         0         0         0         0         0         0         0
         0         0         0         0         0         0         0         0
         0         0         0         0         0         0         0         0
         0         0         0         0         0         0         0         0
         0         0         0         0         0         0         0         0
         0         0         0         0         0         0         0         0
         0         0         0         0         0         0         0         0
         0         0         0         0         0         0         0         0
         0         0         0         0         0         0         0         0
         0         0         0         0         0         0         0         0
         0         0         0         0         0         0         0         0
         0         0         0         0         0         0         0         0
         0         0         0         0         0         0         0         0
         0         0         0         0         0         0         0         0
         0         0         0         0         0         0         0         0
         0         0         0         0         0         0         0         0
         0         0         0         0         0         0         0         0
         0         0         0         0         0         0         0         0
         0         0         0         0         0         0         0         0
         0         0         0         0         0         0         0         0
         0         0         0         0         0         0         0         0
         0         0         0         0         0         0         0         0
         0         0         0         0         0         0         0         0
         0         0         0         0         0         0         0         0
         0         0         0         0         0         0         0         0
         0         0         0         0         0         0         0         0
         0         0         0         0         0         0         0         0
         0         0         0         0         0         0         0         0
         0         0         0         0         0         0         0         0
         0         0         0         0         0         0         0         0
         0         0         0         0         0         0         0         0
         0         0         0         0         0         0         0         0
         0         0         0         0         0         0         0         0
         0         0         0         0         0         0         0         0
         0         0         0         0         0         0         0         0
         0         0         0         0         0         0         0         0
         0         0         0         0         0         0         0         0
         0         0         0         0         0         0         0         0
         0         0         0         0         0         0         0         0
         0         0         0         0         0         0         0         0
         0         0         0         0         0         0         0         0
         0         0         0         0         0         0         0         0
         0         0         0         0         0         0         0         0
         0         0         0         0         0         0         0         0
         0         0         0         0         0         0         0         0
         0         0         0         0         0         0         0         0
         0         0         0         0         0         0         0         0
         0         0         0         0         0         0         0         0
         0         0         0         0         0         0         0         0
         0         0         0         0         0         0         0         0
         0         0         0         0         0         0         0         0
         0         0         0         0         0         0         0         0
         0         0         0         0         0         0         0         0
         0         0         0         0         0         0         0         0
         0         0         0         0         0         0         0         0
         0         0         0         0         0         0         0         0
         0         0         0         0         0         0         0         0
         0         0         0         0         0         0         0         0
         0         0         0         0         0         0         0         0
         0         0         0         0         0         0         0         0
         0         0         0         0         0         0         0         0
         0         0         0         0         0         0         0         0
         0         0         0         0         0         0         0         0
         0         0         0         0         0         0         0         0
         0         0         0         0         0         0         0         0
         0         0         0         0         0         0         0         0
         0         0         0         0         0         0         0         0
         0         0         0         0         0         0         0         0
         0         0         0         0         0         0         0         0
         0         0         0         0         0         0         0         0
         0         0         0         0         0         0         0         0
         0         0         0         0         0         0         0         0
         0         0         0         0         0         0         0         0
         0         0         0         0         0         0         0         0
         0         0         0         0         0         0         0         0
         0         0         0         0         0         0         0         0
         0         0         0         0         0         0         0         0
         0         0         0         0         0         0         0         0
         0         0         0         0         0         0         0         0
         0         0         0         0         0         0         0         0
         0         0         0         0         0         0         0         0
         0         0         0         0         0         0         0         0
         0         0         0         0         0         0         0         0
         0         0         0         0         0         0         0         0
         0         0         0         0         0         0         0         0
         0         0         0         0         0         0         0         0
         0         0         0         0         0         0         0         0
         0         0         0         0         0         0         0         0
         0         0         0         0         0         0         0         0
         0         0         0         0         0         0         0         0
         0         0         0         0         0         0         0         0
         0         0         0         0         0         0         0         0
         0         0         0         0         0         0         0         0
         0         0         0         0         0         0         0         0
         0         0         0         0         0         0         0         0
         0         0         0         0         0         0         0         0
         0         0         0         0         0         0         0         0
         0         0         0         0         0         0         0         0
         0         0         0         0         0         0         0         0
         0         0         0         0         0         0         0         0
         0         0         0         0         0         0         0         0
         0         0         0         0         0         0         0         0
         0         0         0         0         0         0         0         0
         0         0         0         0         0         0         0         0
         0         0         0         0         0         0         0         0
         0         0         0         0         0         0         0         0
         0         0         0         0         0         0         0         0
         0         0         0         0         0         0         0         0
         0         0         0         0         0         0         0         0
         0         0         0         0         0         0         0         0
         0         0         0         0         0         0         0         0
         0         0         0         0         0         0         0         0
         0         0         0         0         0         0         0         0
         0         0         0         0         0         0         0         0
         0         0         0         0         0         0         0         0
         0         0         0         0         0         0         0         0
         0         0         0         0         0         0         0         0
         0         0         0         0         0         0         0         0
         0         0         0         0         0         0         0         0
         0         0         0         0         0         0         0         0
         0         0         0         0         0         0         0         0
         0         0         0         0         0         0         0         0
         0         0         0         0         0         0         0         0
         0         0         0         0         0         0         0         0
         0         0         0         0         0         0         0         0
         0         0         0         0         0         0         0         0
         0         0         0         0         0         0         0         0
         0         0         0         0         0         0         0         0
         0         0         0         0         0         0         0         0
         0         0         0         0         0         0         0         0
         0         0         0         0         0         0         0         0
         0         0         0         0         0         0         0         0
         0         0         0         0         0         0         0         0
         0         0         0         0         0         0         0         0
         0         0         0         0         0         0         0         0
         0         0         0         0         0         0         0         0
         0         0         0         0         0         0         0         0
         0         0         0         0         0         0         0         0
         0         0         0         0         0         0         0         0
         0         0         0         0         0         0         0         0
         0         0         0         0         0         0         0         0
         0         0         0         0         0         0         0         0
         0         0         0         0         0         0         0         0
         0         0         0         0         0         0         0         0
         0         0         0         0         0         0         0         0
         0         0         0         0         0         0         0         0
         0         0         0         0         0         0         0         0
         0         0         0         0         0         0         0         0
         0         0         0         0         0         0         0         0
         0         0         0         0         0         0         0         0
         0         0         0         0         0         0         0         0
         0         0         0         0         0         0         0         0
         0         0         0         0         0         0         0         0
         0         0         0         0         0         0         0         0
         0         0         0         0         0         0         0         0
         0         0         0         0         0         0         0         0
         0         0         0         0         0         0         0         0
         0         0         0         0         0         0         0         0
         0         0         0         0         0         0         0         0
         0         0         0         0         0         0         0         0
         0         0         0         0         0         0         0         0
         0         0         0         0         0         0         0         0
         0         0         0         0         0         0         0         0
         0         0         0         0         0         0         0         0
         0         0         0         0         0         0         0         0
         0         0         0         0         0         0         0         0
         0         0         0         0         0         0         0         0
         0         0         0         0         0         0         0         0
         0         0         0         0         0         0         0         0
         0         0         0         0         0         0         0         0
         0         0         0         0         0         0         0         0
         0         0         0         0         0         0         0         0
         0         0         0         0         0         0         0         0
         0         0         0         0         0         0         0         0
         0         0         0         0         0         0         0         0
         0         0         0         0         0         0         0         0
         0         0         0         0         0         0         0         0
         0         0         0         0         0         0         0         0
         0         0         0         0         0         0         0         0
         0         0         0         0         0         0         0         0
         0         0         0         0         0         0         0         0
         0         0         0         0         0         0         0         0
         0         0         0         0         0         0         0         0
         0         0         0         0         0         0         0         0
         0         0         0         0         0         0         0         0
         0         0         0         0         0         0         0         0
         0         0         0         0         0         0         0         0
         0         0         0         0         0         0         0         0
         0         0         0         0         0         0         0         0
         0         0         0         0         0         0         0         0
         0         0         0         0         0         0         0         0
         0         0         0         0         0         0         0         0
         0         0         0         0         0         0         0         0
         0         0         0         0         0         0         0         0
         0         0         0         0         0         0         0         0
         0         0         0         0         0         0         0         0
         0         0         0         0         0         0         0         0
         0         0         0         0         0         0         0         0
         0         0         0         0         0         0         0         0
         0         0         0         0         0         0         0         0
         0         0         0         0         0         0         0         0
         0         0         0         0         0         0         0         0
         0         0         0         0         0         0         0         0
         0         0         0         0         0         0         0         0
         0         0         0         0         0         0         0         0
         0         0         0         0         0         0         0         0
         0         0         0         0         0         0         0         0
         0         0         0         0         0         0         0         0
         0         0         0         0         0         0         0         0
         0         0         0         0         0         0         0         0
         0         0         0         0         0         0         0         0
         0         0         0         0         0         0         0         0
         0         0         0         0         0         0         0         0
         0         0         0         0         0         0         0         0
         0         0         0         0         0         0         0         0
         0         0         0         0         0         0         0         0
         0         0         0         0         0         0         0         0
         0         0         0         0         0         0         0         0
         0         0         0         0         0         0         0         0
         0         0         0         0         0         0         0         0
         0         0         0         0         0         0         0         0
         0         0         0         0         0         0         0         0
         0         0         0         0         0         0         0         0
         0         0         0         0         0         0         0         0
         0         0         0         0         0         0         0         0
         0         0         0         0         0         0         0         0
         0         0         0         0         0         0         0         0
         0         0         0         0         0         0         0         0
         0         0         0         0         0         0         0         0
         0         0         0         0         0         0         0         0
         0         0         0         0         0         0         0         0
         0         0         0         0         0         0         0         0
         0         0         0         0         0         0         0         0
         0         0         0         0         0         0         0         0
         0         0         0         0         0         0         0         0
         0         0         0         0         0         0         0         0
         0         0         0         0         0         0         0         0
         0         0         0         0         0         0         0         0
         0         0         0         0         0         0         0         0
         0         0         0         0         0         0         0         0
         0         0         0         0         0         0         0         0
         0         0         0         0         0         0         0         0
         0         0         0         0         0         0         0         0
         0         0         0         0         0         0         0         0
         0         0         0         0         0         0         0         0
         0         0         0         0         0         0         0         0
         0         0         0         0         0         0         0         0
         0         0         0         0         0         0         0         0
         0         0         0         0         0         0         0         0
         0         0         0         0         0         0         0         0
         0         0         0         0         0         0         0         0
         0         0         0         0         0         0         0         0
         0         0         0         0         0         0         0         0
         0         0         0         0         0         0         0         0
         0         0         0         0         0         0         0         0
         0         0         0         0         0         0         0         0
         0         0         0         0         0         0         0         0
         0         0         0         0         0         0         0         0
         0         0         0         0         0         0         0         0
         0         0         0         0         0         0         0         0
         0         0         0         0         0         0         0         0
         0         0         0         0         0         0         0         0
         0         0         0         0         0         0         0         0
         0         0         0         0         0         0         0         0
         0         0         0         0         0         0         0         0
         0         0         0         0         0         0         0         0
         0         0         0         0         0         0         0         0
         0         0         0         0         0         0         0         0
         0         0         0         0         0         0         0         0
         0         0         0         0         0         0         0         0
         0         0         0         0         0         0         0         0
         0         0         0         0         0         0         0         0
         0         0         0         0         0         0         0         0
         0         0         0         0         0         0         0         0
         0         0         0         0         0         0         0         0
         0         0         0         0         0         0         0         0
         0         0         0         0         0         0         0         0
         0         0         0         0         0         0         0         0
         0         0         0         0         0         0         0         0
         0         0         0         0         0         0         0         0
         0         0         0         0         0         0         0         0
         0         0         0         0         0         0         0         0
         0         0         0         0         0         0         0         0
         0         0         0         0         0         0         0         0
         0         0         0         0         0         0         0         0
         0         0         0         0         0         0         0         0
         0         0         0         0         0         0         0         0
         0         0         0         0         0         0         0         0
         0         0         0         0         0         0         0         0
         0         0         0         0         0         0         0         0
         0         0         0         0         0         0         0         0
         0         0         0         0         0         0         0         0
         0         0         0         0         0         0         0         0
         0         0         0         0         0         0         0         0
         0         0         0         0         0         0         0         0
         0         0         0         0         0         0         0         0
         0         0         0         0         0         0         0         0
         0         0         0         0         0         0         0         0
         0         0         0         0         0         0         0         0
         0         0         0         0         0         0         0         0
         0         0         0         0         0         0         0         0
         0         0         0         0         0         0         0         0
         0         0         0         0         0         0         0         0
         0         0         0         0         0         0         0         0
         0         0         0         0         0         0         0         0
         0         0         0         0         0         0         0         0
         0         0         0         0         0         0         0         0
         0         0         0         0         0         0         0         0
         0         0         0         0         0         0         0         0
         0         0         0         0         0         0         0         0
         0         0         0         0         0         0         0         0
         0         0         0         0         0         0         0         0
         0         0         0         0         0         0         0         0
         0         0         0         0         0         0         0         0
         0         0         0         0         0         0         0         0
         0         0         0         0         0         0         0         0
         0         0         0         0         0         0         0         0
         0         0         0         0         0         0         0         0
         0         0         0         0         0         0         0         0
         0         0         0         0         0         0         0         0
         0         0         0         0         0         0         0         0
         0         0         0         0         0         0         0         0
         0         0         0         0         0         0         0         0
         0         0         0         0         0         0         0         0
         0         0         0         0         0         0         0         0
         0         0         0         0         0         0         0         0
         0         0         0         0         0         0         0         0
         0         0         0         0         0         0         0         0
         0         0         0         0         0         0         0         0
         0         0         0         0         0         0         0         0
         0         0         0         0         0         0         0         0
         0         0         0         0         0         0         0         0
         0         0         0         0         0         0         0         0
         0         0         0         0         0         0         0         0
         0         0         0         0         0         0         0         0
         0         0         0         0         0         0         0         0
         0         0         0         0         0         0         0         0
         0         0         0         0         0         0         0         0
         0         0         0         0         0         0         0         0
         0         0         0         0         0         0         0         0
         0         0         0         0         0         0         0         0
         0         0         0         0         0         0         0         0
         0         0         0         0         0         0         0         0
         0         0         0         0         0         0         0         0
         0         0         0         0         0         0         0         0
         0         0         0         0         0         0         0         0
         0         0         0         0         0         0         0         0
         0         0         0         0         0         0         0         0
         0         0         0         0         0         0         0         0
         0         0         0         0         0         0         0         0
         0         0         0         0         0         0         0         0
         0         0         0         0         0         0         0         0
         0         0         0         0         0         0         0         0
         0         0         0         0         0         0         0         0
         0         0         0         0         0         0         0         0
         0         0         0         0         0         0         0         0
         0         0         0         0         0         0         0         0
         0         0         0         0         0         0         0         0
         0         0         0         0         0         0         0         0
         0         0         0         0         0         0         0         0
         0         0         0         0         0         0         0         0
         0         0         0         0         0         0         0         0
         0         0         0         0         0         0         0         0
         0         0         0         0         0         0         0         0
         0         0         0         0         0         0         0         0
         0         0         0         0         0         0         0         0
         0         0         0         0         0         0         0         0
         0         0         0         0         0         0         0         0
         0         0         0         0         0         0         0         0
         0         0         0         0         0         0         0         0
         0         0         0         0         0         0         0         0
         0         0         0         0         0         0         0         0
         0         0         0         0         0         0         0         0
         0         0         0         0         0         0         0         0
         0         0         0         0         0         0         0         0
         0         0         0         0         0         0         0         0
         0         0         0         0         0         0         0         0
         0         0         0         0         0         0         0         0
         0         0         0         0         0         0         0         0
         0         0         0         0         0         0         0         0
         0         0         0         0         0         0         0         0
         0         0         0         0         0         0         0         0
         0         0         0         0         0         0         0         0
         0         0         0         0         0         0         0         0
         0         0         0         0         0         0         0         0
         0         0         0         0         0         0         0         0
         0         0         0         0         0         0         0         0
         0         0         0         0         0         0         0         0
         0         0         0         0         0         0         0         0
         0         0         0         0         0         0         0         0
         0         0         0         0         0         0         0         0
         0         0         0         0         0         0         0         0
         0         0         0         0         0         0         0         0
         0         0         0         0         0         0         0         0
         0         0         0         0         0         0         0         0
         0         0         0         0         0         0         0         0
         0         0         0         0         0         0         0         0
         0         0         0         0         0         0         0         0
         0         0         0         0         0         0         0         0
         0         0         0         0         0         0         0         0
         0         0         0         0         0         0         0         0
         0         0         0         0         0         0         0         0
         0         0         0         0         0         0         0         0
         0         0         0         0         0         0         0         0
         0         0         0         0         0         0         0         0
         0         0         0         0         0         0         0         0
         0         0         0         0         0         0         0         0
         0         0         0         0         0         0         0         0
         0         0         0         0         0         0         0         0
         0         0         0         0         0         0         0         0
         0         0         0         0         0         0         0         0
         0         0         0         0         0         0         0         0
         0         0         0         0         0         0         0         0
         0         0         0         0         0         0         0         0
         0         0         0         0         0         0         0         0
         0         0         0         0         0         0         0         0
         0         0         0         0         0         0         0         0
         0         0         0         0         0         0         0         0
         0         0         0         0         0         0         0         0
         0         0         0         0         0         0         0         0
         0         0         0         0         0         0         0         0
         0         0         0         0         0         0         0         0
         0         0         0         0         0         0         0         0
         0         0         0         0         0         0         0         0
         0         0         0         0         0         0         0         0
         0         0         0         0         0         0         0         0
         0         0         0         0         0         0         0         0
         0         0         0         0         0         0         0         0
         0         0         0         0         0         0         0         0
         0         0         0         0         0         0         0         0
         0         0         0         0         0         0         0         0
         0         0         0         0         0         0         0         0
         0         0         0         0         0         0         0         0
         0         0         0         0         0         0         0         0
         0         0         0         0         0         0         0         0
         0         0         0         0         0         0         0         0
         0         0         0         0         0         0         0         0
         0         0         0         0         0         0         0         0
         0         0         0         0         0         0         0         0
         0         0         0         0         0         0         0         0
         0         0         0         0         0         0         0         0
         0         0         0         0         0         0         0         0
         0         0         0         0         0         0         0         0
         0         0         0         0         0         0         0         0
         0         0         0         0         0         0         0         0
         0         0         0         0         0         0         0         0
         0         0         0         0         0         0         0         0
         0         0         0         0         0         0         0         0
         0         0         0         0         0         0         0         0
         0         0         0         0         0         0         0         0
         0         0         0         0         0         0         0         0
         0         0         0         0         0         0         0         0
         0         0         0         0         0         0         0         0
         0         0         0         0         0         0         0         0
         0         0         0         0         0         0         0         0
         0         0         0         0         0         0         0         0
         0         0         0         0         0         0         0         0
         0         0         0         0         0         0         0         0
         0         0         0         0         0         0         0         0
         0         0         0         0         0         0         0         0
         0         0         0         0         0         0         0         0
         0         0         0         0         0         0         0         0
         0         0         0         0         0         0         0         0
         0         0         0         0         0         0         0         0
         0         0         0         0         0         0         0         0
         0         0         0         0         0         0         0         0
         0         0         0         0         0         0         0         0
         0         0         0         0         0         0         0         0
         0         0         0         0         0         0         0         0
         0         0         0         0         0         0         0         0
         0         0         0         0         0         0         0         0
         0         0         0         0         0         0         0         0
         0         0         0         0         0         0         0         0
         0         0         0         0         0         0         0         0
         0         0         0         0         0         0         0         0
         0         0         0         0         0         0         0         0
         0         0         0         0         0         0         0         0
         0         0         0         0         0         0         0         0
         0         0         0         0         0         0         0         0
         0         0         0         0         0         0         0         0
         0         0         0         0         0         0         0         0
         0         0         0         0         0         0         0         0
         0         0         0         0         0         0         0         0
         0         0         0         0         0         0         0         0
         0         0         0         0         0         0         0         0
         0         0         0         0         0         0         0         0
         0         0         0         0         0         0         0         0
         0         0         0         0         0         0         0         0
         0         0         0         0         0         0         0         0
         0         0         0         0         0         0         0         0
         0         0         0         0         0         0         0         0
         0         0         0         0         0         0         0         0
         0         0         0         0         0         0         0         0
         0         0         0         0         0         0         0         0
         0         0         0         0         0         0         0         0
         0         0         0         0         0         0         0         0
         0         0         0         0         0         0         0         0
         0         0         0         0         0         0         0         0
         0         0         0         0         0         0         0         0
         0         0         0         0         0         0         0         0
         0         0         0         0         0         0         0         0
         0         0         0         0         0         0         0         0
         0         0         0         0         0         0         0         0
         0         0         0         0         0         0         0         0
         0         0         0         0         0         0         0         0
         0         0         0         0         0         0         0         0
         0         0         0         0         0         0         0         0
         0         0         0         0         0         0         0         0
         0         0         0         0         0         0         0         0
         0         0         0         0         0         0         0         0
         0         0         0         0         0         0         0         0
         0         0         0         0         0         0         0         0
         0         0         0         0         0         0         0         0
         0         0         0         0         0         0         0         0
         0         0         0         0         0         0         0         0
         0         0         0         0         0         0         0         0
         0         0         0         0         0         0         0         0
         0         0         0         0         0         0         0         0
         0         0         0         0         0         0         0         0
         0         0         0         0         0         0         0         0
         0         0         0         0         0         0         0         0
         0         0         0         0         0         0         0         0
         0         0         0         0         0         0         0         0
         0         0         0         0         0         0         0         0
         0         0         0         0         0         0         0         0
         0         0         0         0         0         0         0         0
         0         0         0         0         0         0         0         0
         0         0         0         0         0         0         0         0
         0         0         0         0         0         0         0         0
         0         0         0         0         0         0         0         0
         0         0         0         0         0         0         0         0
         0         0         0         0         0         0         0         0
         0         0         0         0         0         0         0         0
         0         0         0         0         0         0         0         0
         0         0         0         0         0         0         0         0
         0         0         0         0         0         0         0         0
         0         0         0         0         0         0         0         0
         0         0         0         0         0         0         0         0
         0         0         0         0         0         0         0         0
         0         0         0         0         0         0         0         0
         0         0         0         0         0         0         0         0
         0         0         0         0         0         0         0         0
         0         0         0         0         0         0         0         0
         0         0         0         0         0         0         0         0
         0         0         0         0         0         0         0         0
         0         0         0         0         0         0         0         0
         0         0         0         0         0         0         0         0
         0         0         0         0         0         0         0         0
         0         0         0         0         0         0         0         0
         0         0         0         0         0         0         0         0
         0         0         0         0         0         0         0         0
         0         0         0         0         0         0         0         0
         0         0         0         0         0         0         0         0
         0         0         0         0         0         0         0         0
         0         0         0         0         0         0         0         0
         0         0         0         0         0         0         0         0
         0         0         0         0         0         0         0         0
         0         0         0         0         0         0         0         0
         0         0         0         0         0         0         0         0
         0         0         0         0         0         0         0         0
         0         0         0         0         0         0         0         0
         0         0         0         0         0         0         0         0
         0         0         0         0         0         0         0         0
         0         0         0         0         0         0         0         0
         0         0         0         0         0         0         0         0
         0         0         0         0         0         0         0         0
         0         0         0         0         0         0         0         0
         0         0         0         0         0         0         0         0
         0         0         0         0         0         0         0         0
         0         0         0         0         0         0         0         0
         0         0         0         0         0         0         0         0
         0         0         0         0         0         0         0         0
         0         0         0         0         0         0         0         0
         0         0         0         0         0         0         0         0
         0         0         0         0         0         0         0         0
         0         0         0         0         0         0         0         0
         0         0         0         0         0         0         0         0
         0         0         0         0         0         0         0         0
         0         0         0         0         0         0         0         0
         0         0         0         0         0         0         0         0
         0         0         0         0         0         0         0         0
         0         0         0         0         0         0         0         0
         0         0         0         0         0         0         0         0
         0         0         0         0         0         0         0         0
         0         0         0         0         0         0         0         0
         0         0         0         0         0         0         0         0
         0         0         0         0         0         0         0         0
         0         0         0         0         0         0         0         0
         0         0         0         0         0         0         0         0
         0         0         0         0         0         0         0         0
         0         0         0         0         0         0         0         0
         0         0         0         0         0         0         0         0
         0         0         0         0         0         0         0         0
         0         0         0         0         0         0         0         0
         0         0         0         0         0         0         0         0
         0         0         0         0         0         0         0         0
         0         0         0         0         0         0         0         0
         0         0         0         0         0         0         0         0
         0         0         0         0         0         0         0         0
         0         0         0         0         0         0         0         0
         0         0         0         0         0         0         0         0
         0         0         0         0         0         0         0         0
         0         0         0         0         0         0         0         0
         0         0         0         0         0         0         0         0
         0         0         0         0         0         0         0         0
         0         0         0         0         0         0         0         0
         0         0         0         0         0         0         0         0
         0         0         0         0         0         0         0         0
         0         0         0         0         0         0         0         0
         0         0         0         0         0         0         0         0
         0         0         0         0         0         0         0         0
         0         0         0         0         0         0         0         0
         0         0         0         0         0         0         0         0
         0         0         0         0         0         0         0         0
         0         0         0         0         0         0         0         0
         0         0         0         0         0         0         0         0
         0         0         0         0         0         0         0         0
         0         0         0         0         0         0         0         0
         0         0         0         0         0         0         0         0
         0         0         0         0         0         0         0         0
         0         0         0         0         0         0         0         0
         0         0         0         0         0         0         0         0
         0         0         0         0         0         0         0         0
         0         0         0         0         0         0         0         0
         0         0         0         0         0         0         0         0
         0         0         0         0         0         0         0         0
         0         0         0         0         0         0         0         0
         0         0         0         0         0         0         0         0
         0         0         0         0         0         0         0         0
         0         0         0         0         0         0         0         0
         0         0         0         0         0         0         0         0
         0         0         0         0         0         0         0         0
         0         0         0         0         0         0         0         0
         0         0         0         0         0         0         0         0
         0         0         0         0         0         0         0         0
         0         0         0         0         0         0         0         0
         0         0         0         0         0         0         0         0
         0         0         0         0         0         0         0         0
         0         0         0         0         0         0         0         0
         0         0         0         0         0         0         0         0
         0         0         0         0         0         0         0         0
         0         0         0         0         0         0         0         0
         0         0         0         0         0         0         0         0
         0         0         0         0         0         0         0         0
         0         0         0         0         0         0         0         0
         0         0         0         0         0         0         0         0
         0         0         0         0         0         0         0         0
         0         0         0         0         0         0         0         0
         0         0         0         0         0         0         0         0
         0         0         0         0         0         0         0         0
         0         0         0         0         0         0         0         0
         0         0         0         0         0         0         0         0
         0         0         0         0         0         0         0         0
         0         0         0         0         0         0         0         0
         0         0         0         0         0         0         0         0
         0         0         0         0         0         0         0         0
         0         0         0         0         0         0         0         0
         0         0         0         0         0         0         0         0
         0         0         0         0         0         0         0         0
         0         0         0         0         0         0         0         0
         0         0         0         0         0         0         0         0
         0         0         0         0         0         0         0         0
         0         0         0         0         0         0         0         0
         0         0         0         0         0         0         0         0
         0         0         0         0         0         0         0         0
         0         0         0         0         0         0         0         0
         0         0         0         0         0         0         0         0
         0         0         0         0         0         0         0         0
         0         0         0         0         0         0         0         0
         0         0         0         0         0         0         0         0
         0         0         0         0         0         0         0         0
         0         0         0         0         0         0         0         0
         0         0         0         0         0         0         0         0
         0         0         0         0         0         0         0         0
         0         0         0         0         0         0         0         0
         0         0         0         0         0         0         0         0
         0         0         0         0         0         0         0         0
         0         0         0         0         0         0         0         0
         0         0         0         0         0         0         0         0
         0         0         0         0         0         0         0         0
         0         0         0         0         0         0         0         0
         0         0         0         0         0         0         0         0
         0         0         0         0         0         0         0         0
         0         0         0         0         0         0         0         0
         0         0         0         0         0         0         0         0
         0         0         0         0         0         0         0         0
         0         0         0         0         0         0         0         0
         0         0         0         0         0         0         0         0
         0         0         0         0         0         0         0         0
         0         0         0         0         0         0         0         0
         0         0         0         0         0         0         0         0
         0         0         0         0         0         0         0         0
         0         0         0         0         0         0         0         0
         0         0         0         0         0         0         0         0
         0         0         0         0         0         0         0         0
         0         0         0         0         0         0         0         0
         0         0         0         0         0         0         0         0
         0         0         0         0         0         0         0         0
         0         0         0         0         0         0         0         0
         0         0         0         0         0         0         0         0
         0         0         0         0         0         0         0         0
         0         0         0         0         0         0         0         0
         0         0         0         0         0         0         0         0
         0         0         0         0         0         0         0         0
         0         0         0         0         0         0         0         0
         0         0         0         0         0         0         0         0
         0         0         0         0         0         0         0         0
         0         0         0         0         0         0         0         0
         0         0         0         0         0         0         0         0
         0         0         0         0         0         0         0         0
         0         0         0         0         0         0         0         0
         0         0         0         0         0         0         0         0
         0         0         0         0         0         0         0         0
         0         0         0         0         0         0         0         0
         0         0         0         0         0         0         0         0
         0         0         0         0         0         0         0         0
         0         0         0         0         0         0         0         0
         0         0         0         0         0         0         0         0
         0         0         0         0         0         0         0         0
         0         0         0         0         0         0         0         0
         0         0         0         0         0         0         0         0
         0         0         0         0         0         0         0         0
         0         0         0         0         0         0         0         0
         0         0         0         0         0         0         0         0
         0         0         0         0         0         0         0         0
         0         0         0         0         0         0         0         0
         0         0         0         0         0         0         0         0
         0         0         0         0         0         0         0         0
         0         0         0         0         0         0         0         0
         0         0         0         0         0         0         0         0
         0         0         0         0         0         0         0         0
         0         0         0         0         0         0         0         0
         0         0         0         0         0         0         0         0
         0         0         0         0         0         0         0         0
         0         0         0         0         0         0         0         0
         0         0         0         0         0         0         0         0
         0         0         0         0         0         0         0         0
         0         0         0         0         0         0         0         0
         0         0         0         0         0         0         0         0
         0         0         0         0         0         0         0         0
         0         0         0         0         0         0         0         0
         0         0         0         0         0         0         0         0
         0         0         0         0         0         0         0         0
         0         0         0         0         0         0         0         0
         0         0         0         0         0         0         0         0
         0         0         0         0         0         0         0         0
         0         0         0         0         0         0         0         0
         0         0         0         0         0         0         0         0
         0         0         0         0         0         0         0         0
         0         0         0         0         0         0         0         0
         0         0         0         0         0         0         0         0
         0         0         0         0         0         0         0         0
         0         0         0         0         0         0         0         0
         0         0         0         0         0         0         0         0
         0         0         0         0         0         0         0         0
         0         0         0         0         0         0         0         0
         0         0         0         0         0         0         0         0
         0         0         0         0         0         0         0         0
         0         0         0         0         0         0         0         0
         0         0         0         0         0         0         0         0
         0         0         0         0         0         0         0         0
         0         0         0         0         0         0         0         0
         0         0         0         0         0         0         0         0
         0         0         0         0         0         0         0         0
         0         0         0         0         0         0         0         0
         0         0         0         0         0         0         0         0
         0         0         0         0         0         0         0         0
         0         0         0         0         0         0         0         0
         0         0         0         0         0         0         0         0
         0         0         0         0         0         0         0         0
         0         0         0         0         0         0         0         0
         0         0         0         0         0         0         0         0
         0         0         0         0         0         0         0         0
         0         0         0         0         0         0         0         0
         0         0         0         0         0         0         0         0
         0         0         0         0         0         0         0         0
         0         0         0         0         0         0         0         0
         0         0         0         0         0         0         0         0
         0         0         0         0         0         0         0         0
         0         0         0         0         0         0         0         0
         0         0         0         0         0         0         0         0
         0         0         0         0         0         0         0         0
         0         0         0         0         0         0         0         0
         0         0         0         0         0         0         0         0
         0         0         0         0         0         0         0         0
         0         0         0         0         0         0         0         0
         0         0         0         0         0         0         0         0
         0         0         0         0         0         0         0         0
         0         0         0         0         0         0         0         0
         0         0         0         0         0         0         0         0
         0         0         0         0         0         0         0         0
         0         0         0         0         0         0         0         0
         0         0         0         0         0         0         0         0
         0         0         0         0         0         0         0         0
         0         0         0         0         0         0         0         0
         0         0         0         0         0         0         0         0
         0         0         0         0         0         0         0         0
         0         0         0         0         0         0         0         0
         0         0         0         0         0         0         0         0
         0         0         0         0         0         0         0         0
         0         0         0         0         0         0         0         0
         0         0         0         0         0         0         0         0
         0         0         0         0         0         0         0         0
         0         0         0         0         0         0         0         0
         0         0         0         0         0         0         0         0
         0         0         0         0         0         0         0         0
         0         0         0         0         0         0         0         0
         0         0         0         0         0         0         0         0
         0         0         0         0         0         0         0         0
         0         0         0         0         0         0         0         0
         0         0         0         0         0         0         0         0
         0         0         0         0         0         0         0         0
         0         0         0         0         0         0         0         0
         0         0         0         0         0         0         0         0
         0         0         0         0         0         0         0         0
         0         0         0         0         0         0         0         0
         0         0         0         0         0         0         0         0
         0         0         0         0         0         0         0         0
         0         0         0         0         0         0         0         0
         0         0         0         0         0         0         0         0
         0         0         0         0         0         0         0         0
         0         0         0         0         0         0         0         0
         0         0         0         0         0         0         0         0
         0         0         0         0         0         0         0         0
         0         0         0         0         0         0         0         0
         0         0         0         0         0         0         0         0
         0         0         0         0         0         0         0         0
         0         0         0         0         0         0         0         0
         0         0         0         0         0         0         0         0
         0         0         0         0         0         0         0         0
         0         0         0         0         0         0         0         0
         0         0         0         0         0         0         0         0
         0         0         0         0         0         0         0         0
         0         0         0         0         0         0         0         0
         0         0         0         0         0         0         0         0
         0         0         0         0         0         0         0         0
         0         0         0         0         0         0         0         0
         0         0         0         0         0         0         0         0
         0         0         0         0         0         0         0         0
         0         0         0         0         0         0         0         0
         0         0         0         0         0         0         0         0
         0         0         0         0         0         0         0         0
         0         0         0         0         0         0         0         0
         0         0         0         0         0         0         0         0
         0         0         0         0         0         0         0         0
         0         0         0         0         0         0         0         0
         0         0         0         0         0         0         0         0
         0         0         0         0         0         0         0         0
         0         0         0         0         0         0         0         0
         0         0         0         0         0         0         0         0
         0         0         0         0         0         0         0         0
         0         0         0         0         0         0         0         0
         0         0         0         0         0         0         0         0
         0         0         0         0         0         0         0         0
         0         0         0         0         0         0         0         0
         0         0         0         0         0         0         0         0
         0         0         0         0         0         0         0         0
         0         0         0         0         0         0         0         0
         0         0         0         0         0         0         0         0
         0         0         0         0         0         0         0         0
         0         0         0         0         0         0         0         0
         0         0         0         0         0         0         0         0
         0         0         0         0         0         0         0         0
         0         0         0         0         0         0         0         0
         0         0         0         0         0         0         0         0
         0         0         0         0         0         0         0         0
         0         0         0         0         0         0         0         0
         0         0         0         0         0         0         0         0
         0         0         0         0         0         0         0         0
         0         0         0         0         0         0         0         0
         0         0         0         0         0         0         0         0
         0         0         0         0         0         0         0         0
         0         0         0         0         0         0         0         0
         0         0         0         0         0         0         0         0
         0         0         0         0         0         0         0         0
         0         0         0         0         0         0         0         0
         0         0         0         0         0         0         0         0
         0         0         0         0         0         0         0         0
         0         0         0         0         0         0         0         0
         0         0         0         0         0         0         0         0
         0         0         0         0         0         0         0         0
         0         0         0         0         0         0         0         0
         0         0         0         0         0         0         0         0
         0         0         0         0         0         0         0         0
         0         0         0         0         0         0         0         0
         0         0         0         0         0         0         0         0
         0         0         0         0         0         0         0         0
         0         0         0         0         0         0         0         0
         0         0         0         0         0         0         0         0
         0         0         0         0         0         0         0         0
         0         0         0         0         0         0         0         0
         0         0         0         0         0         0         0         0
         0         0         0         0         0         0         0         0
         0         0         0         0         0         0         0         0
         0         0         0         0         0         0         0         0
         0         0         0         0         0         0         0         0
         0         0         0         0         0         0         0         0
         0         0         0         0         0         0         0         0
         0         0         0         0         0         0         0         0
         0         0         0         0         0         0         0         0
         0         0         0         0         0         0         0         0
         0         0         0         0         0         0         0         0
         0         0         0         0         0         0         0         0
         0         0         0         0         0         0         0         0
         0         0         0         0         0         0         0         0
         0         0         0         0         0         0         0         0
         0         0         0         0         0         0         0         0
         0         0         0         0         0         0         0         0
         0         0         0         0         0         0         0         0
         0         0         0         0         0         0         0         0
         0         0         0         0         0         0         0         0
         0         0         0         0         0         0         0         0
         0         0         0         0         0         0         0         0
         0         0         0         0         0         0         0         0
         0         0         0         0         0         0         0         0
         0         0         0         0         0         0         0         0
         0         0         0         0         0         0         0         0
         0         0         0         0         0         0         0         0
         0         0         0         0         0         0         0         0
         0         0         0         0         0         0         0         0
         0         0         0         0         0         0         0         0
         0         0         0         0         0         0         0         0
         0         0         0         0         0         0         0         0
         0         0         0         0         0         0         0         0
         0         0         0         0         0         0         0         0
         0         0         0         0         0         0         0         0
         0         0         0         0         0         0         0         0
         0         0         0         0         0         0         0         0
         0         0         0         0         0         0         0         0
         0         0         0         0         0         0         0         0
         0         0         0         0         0         0         0         0
         0         0         0         0         0         0         0         0
         0         0         0         0         0         0         0         0
         0         0         0         0         0         0         0         0
         0         0         0         0         0         0         0         0
         0         0         0         0         0         0         0         0
         0         0         0         0         0         0         0         0
         0         0         0         0         0         0         0         0
         0         0         0         0         0         0         0         0
         0         0         0         0         0         0         0         0
         0         0         0         0         0         0         0         0
         0         0         0         0         0         0         0         0
         0         0         0         0         0         0         0         0
         0         0         0         0         0         0         0         0
         0         0         0         0         0         0         0         0
         0         0         0         0         0         0         0         0
         0         0         0         0         0         0         0         0
         0         0         0         0         0         0         0         0
         0         0         0         0         0         0         0         0
         0         0         0         0         0         0         0         0
         0         0         0         0         0         0         0         0
         0         0         0         0         0         0         0         0
         0         0         0         0         0         0         0         0
         0         0         0         0         0         0         0         0
         0         0         0         0         0         0         0         0
         0         0         0         0         0         0         0         0
         0         0         0         0         0         0         0         0
         0         0         0         0         0         0         0         0
         0         0         0         0         0         0         0         0
         0         0         0         0         0         0         0         0
         0         0         0         0         0         0         0         0
         0         0         0         0         0         0         0         0
         0         0         0         0         0         0         0         0
         0         0         0         0         0         0         0         0
         0         0         0         0         0         0         0         0
         0         0         0         0         0         0         0         0
         0         0         0         0         0         0         0         0
         0         0         0         0         0         0         0         0
         0         0         0         0         0         0         0         0
         0         0         0         0         0         0         0         0
         0         0         0         0         0         0         0         0
         0         0         0         0         0         0         0         0
         0         0         0         0         0         0         0         0
         0         0         0         0         0         0         0         0
         0         0         0         0         0         0         0         0
         0         0         0         0         0         0         0         0
         0         0         0         0         0         0         0         0
         0         0         0         0         0         0         0         0
         0         0         0         0         0         0         0         0
         0         0         0         0         0         0         0         0
         0         0         0         0         0         0         0         0
         0         0         0         0         0         0         0         0
         0         0         0         0         0         0         0         0
         0         0         0         0         0         0         0         0
         0         0         0         0         0         0         0         0
         0         0         0         0         0         0         0         0
         0         0         0         0         0         0         0         0
         0         0         0         0         0         0         0         0
         0         0         0         0         0         0         0         0
         0         0         0         0         0         0         0         0
         0         0         0         0         0         0         0         0
         0         0         0         0         0         0         0         0
         0         0         0         0         0         0         0         0
         0         0         0         0         0         0         0         0
         0         0         0         0         0         0         0         0
         0         0         0         0         0         0         0         0
         0         0         0         0         0         0         0         0
         0         0         0         0         0         0         0         0
         0         0         0         0         0         0         0         0
         0         0         0         0         0         0         0         0
         0         0         0         0         0         0         0         0
         0         0         0         0         0         0         0         0
         0         0         0         0         0         0         0         0
         0         0         0         0         0         0         0         0
         0         0         0         0         0         0         0         0
         0         0         0         0         0         0         0         0
         0         0         0         0         0         0         0         0
         0         0         0         0         0         0         0         0
         0         0         0         0         0         0         0         0
         0         0         0         0         0         0         0         0
         0         0         0         0         0         0         0         0
         0         0         0         0         0         0         0         0
         0         0         0         0         0         0         0         0
         0         0         0         0         0         0         0         0
         0         0         0         0         0         0         0         0
         0         0         0         0         0         0         0         0
         0         0         0         0         0         0         0         0
         0         0         0         0         0         0         0         0
         0         0         0         0         0         0         0         0
         0         0         0         0         0         0         0         0
         0         0         0         0         0         0         0         0
         0         0         0         0         0         0         0         0
         0         0         0         0         0         0         0         0
         0         0         0         0         0         0         0         0
         0         0         0         0         0         0         0         0
         0         0         0         0         0         0         0         0
         0         0         0         0         0         0         0         0
         0         0         0         0         0         0         0         0
         0         0         0         0         0         0         0         0
         0         0         0         0         0         0         0         0
         0         0         0         0         0         0         0         0
         0         0         0         0         0         0         0         0
         0         0         0         0         0         0         0         0
         0         0         0         0         0         0         0         0
         0         0         0         0         0         0         0         0
         0         0         0         0         0         0         0         0
         0         0         0         0         0         0         0         0
         0         0         0         0         0         0         0         0
         0         0         0         0         0         0         0         0
         0         0         0         0         0         0         0         0
         0         0         0         0         0         0         0         0
         0         0         0         0         0         0         0         0
         0         0         0         0         0         0         0         0
         0         0         0         0         0         0         0         0
         0         0         0         0         0         0         0         0
         0         0         0         0         0         0         0         0
         0         0         0         0         0         0         0         0
         0         0         0         0         0         0         0         0
         0         0         0         0         0         0         0         0
         0         0         0         0         0         0         0         0
         0         0         0         0         0         0         0         0
         0         0         0         0         0         0         0         0
         0         0         0         0         0         0         0         0
         0         0         0         0         0         0         0         0
         0         0         0         0         0         0         0         0
         0         0         0         0         0         0         0         0
         0         0         0         0         0         0         0         0
         0         0         0         0         0         0         0         0
         0         0         0         0         0         0         0         0
         0         0         0         0         0         0         0         0
         0         0         0         0         0         0         0         0
         0         0         0         0         0         0         0         0
         0         0         0         0         0         0         0         0
         0         0         0         0         0         0         0         0
         0         0         0         0         0         0         0         0
         0         0         0         0         0         0         0         0
         0         0         0         0         0         0         0         0
         0         0         0         0         0         0         0         0
         0         0         0         0         0         0         0         0
         0         0         0         0         0         0         0         0
         0         0         0         0         0         0         0         0
         0         0         0         0         0         0         0         0
         0         0         0         0         0         0         0         0
         0         0         0         0         0         0         0         0
         0         0         0         0         0         0         0         0
         0         0         0         0         0         0         0         0
         0         0         0         0         0         0         0         0
         0         0         0         0         0         0         0         0
         0         0         0         0         0         0         0         0
         0         0         0         0         0         0         0         0
         0         0         0         0         0         0         0         0
         0         0         0         0         0         0         0         0
         0         0         0         0         0         0         0         0
         0         0         0         0         0         0         0         0
         0         0         0         0         0         0         0         0
         0         0         0         0         0         0         0         0
         0         0         0         0         0         0         0         0
         0         0         0         0         0         0         0         0
         0         0         0         0         0         0         0         0
         0         0         0         0         0         0         0         0
         0         0         0         0         0         0         0         0
         0         0         0         0         0         0         0         0
         0         0         0         0         0         0         0         0
         0         0         0         0         0         0         0         0
         0         0         0         0         0         0         0         0
         0         0         0         0         0         0         0         0
         0         0         0         0         0         0         0         0
         0         0         0         0         0         0         0         0
         0         0         0         0         0         0         0         0
         0         0         0         0         0         0         0         0
         0         0         0         0         0         0         0         0
         0         0         0         0         0         0         0         0
         0         0         0         0         0         0         0         0
         0         0         0         0         0         0         0         0
         0         0         0         0         0         0         0         0
         0         0         0         0         0         0         0         0
         0         0         0         0         0         0         0         0
         0         0         0         0         0         0         0         0
         0         0         0         0         0         0         0         0
         0         0         0         0         0         0         0         0
         0         0         0         0         0         0         0         0
         0         0         0         0         0         0         0         0
         0         0         0         0         0         0         0         0
         0         0         0         0         0         0         0         0
         0         0         0         0         0         0         0         0
         0         0         0         0         0         0         0         0
         0         0         0         0         0         0         0         0
         0         0         0         0         0         0         0         0
         0         0         0         0         0         0         0         0
         0         0         0         0         0         0         0         0
         0         0         0         0         0         0         0         0
         0         0         0         0         0         0         0         0
         0         0         0         0         0         0         0         0
         0         0         0         0         0         0         0         0
         0         0         0         0         0         0         0         0
         0         0         0         0         0         0         0         0
         0         0         0         0         0         0         0         0
         0         0         0         0         0         0         0         0
         0         0         0         0         0         0         0         0
         0         0         0         0         0         0         0         0
         0         0         0         0         0         0         0         0
         0         0         0         0         0         0         0         0
         0         0         0         0         0         0         0         0
         0         0         0         0         0         0         0         0
         0         0         0         0         0         0         0         0
         0         0         0         0         0         0         0         0
         0         0         0         0         0         0         0         0
         0         0         0         0         0         0         0         0
         0         0         0         0         0         0         0         0
         0         0         0         0         0         0         0         0
         0         0         0         0         0         0         0         0
         0         0         0         0         0         0         0         0
         0         0         0         0         0         0         0         0
         0         0         0         0         0         0         0         0
         0         0         0         0         0         0         0         0
         0         0         0         0         0         0         0         0
         0         0         0         0         0         0         0         0
         0         0         0         0         0         0         0         0
         0         0         0         0         0         0         0         0
         0         0         0         0         0         0         0         0
         0         0         0         0         0         0         0         0
         0         0         0         0         0         0         0         0
         0         0         0         0         0         0         0         0
         0         0         0         0         0         0         0         0
         0         0         0         0         0         0         0         0
         0         0         0         0         0         0         0         0
         0         0         0         0         0         0         0         0
         0         0         0         0         0         0         0         0
         0         0         0         0         0         0         0         0
         0         0         0         0         0         0         0         0
         0         0         0         0         0         0         0         0
         0         0         0         0         0         0         0         0
         0         0         0         0         0         0         0         0
         0         0         0         0         0         0         0         0
         0         0         0         0         0         0         0         0
         0         0         0         0         0         0         0         0
         0         0         0         0         0         0         0         0
         0         0         0         0         0         0         0         0
         0         0         0         0         0         0         0         0
         0         0         0         0         0         0         0         0
         0         0         0         0         0         0         0         0
         0         0         0         0         0         0         0         0
         0         0         0         0         0         0         0         0
         0         0         0         0         0         0         0         0
         0         0         0         0         0         0         0         0
         0         0         0         0         0         0         0         0
         0         0         0         0         0         0         0         0
         0         0         0         0         0         0         0         0
         0         0         0         0         0         0         0         0
         0         0         0         0         0         0         0         0
         0         0         0         0         0         0         0         0
         0         0         0         0         0         0         0         0
         0         0         0         0         0         0         0         0
         0         0         0         0         0         0         0         0
         0         0         0         0         0         0         0         0
         0         0         0         0         0         0         0         0
         0         0         0         0         0         0         0         0
         0         0         0         0         0         0         0         0
         0         0         0         0         0         0         0         0
         0         0         0         0         0         0         0         0
         0         0         0         0         0         0         0         0
         0         0         0         0         0         0         0         0
         0         0         0         0         0         0         0         0
         0         0         0         0         0         0         0         0
         0         0         0         0         0         0         0         0
         0         0         0         0         0         0         0         0
         0         0         0         0         0         0         0         0
         0         0         0         0         0         0         0         0
         0         0         0         0         0         0         0         0
         0         0         0         0         0         0         0         0
         0         0         0         0         0         0         0         0
         0         0         0         0         0         0         0         0
         0         0         0         0         0         0         0         0
         0         0         0         0         0         0         0         0
         0         0         0         0         0         0         0         0
         0         0         0         0         0         0         0         0
         0         0         0         0         0         0         0         0
         0         0         0         0         0         0         0         0
         0         0         0         0         0         0         0         0
         0         0         0         0         0         0         0         0
         0         0         0         0         0         0         0         0
         0         0         0         0         0         0         0         0
         0         0         0         0         0         0         0         0
         0         0         0         0         0         0         0         0
         0         0         0         0         0         0         0         0
         0         0         0         0         0         0         0         0
         0         0         0         0         0         0         0         0
         0         0         0         0         0         0         0         0
         0         0         0         0         0         0         0         0
         0         0         0         0         0         0         0         0
         0         0         0         0         0         0         0         0
         0         0         0         0         0         0         0         0
         0         0         0         0         0         0         0         0
         0         0         0         0         0         0         0         0
         0         0         0         0         0         0         0         0
         0         0         0         0         0         0         0         0
         0         0         0         0         0         0         0         0
         0         0         0         0         0         0         0         0
         0         0         0         0         0         0         0         0
         0         0         0         0         0         0         0         0
         0         0         0         0         0         0         0         0
         0         0         0         0         0         0         0         0
         0         0         0         0         0         0         0         0
         0         0         0         0         0         0         0         0
         0         0         0         0         0         0         0         0
         0         0         0         0         0         0         0         0
         0         0         0         0         0         0         0         0
         0         0         0         0         0         0         0         0
         0         0         0         0         0         0         0         0
         0         0         0         0         0         0         0         0
         0         0         0         0         0         0         0         0
         0         0         0         0         0         0         0         0
         0         0         0         0         0         0         0         0
         0         0         0         0         0         0         0         0
         0         0         0         0         0         0         0         0
         0         0         0         0         0         0         0         0
         0         0         0         0         0         0         0         0
         0         0         0         0         0         0         0         0
         0         0         0         0         0         0         0         0
         0         0         0         0         0         0         0         0
         0         0         0         0         0         0         0         0
         0         0         0         0         0         0         0         0
         0         0         0         0         0         0         0         0
         0         0         0         0         0         0         0         0
         0         0         0         0         0         0         0         0
         0         0         0         0         0         0         0         0
         0         0         0         0         0         0         0         0
         0         0         0         0         0         0         0         0
         0         0         0         0         0         0         0         0
         0         0         0         0         0         0         0         0
         0         0         0         0         0         0         0         0
         0         0         0         0         0         0         0         0
         0         0         0         0         0         0         0         0
         0         0         0         0         0         0         0         0
         0         0         0         0         0         0         0         0
         0         0         0         0         0         0         0         0
         0         0         0         0         0         0         0         0
         0         0         0         0         0         0         0         0
         0         0         0         0         0         0         0         0
         0         0         0         0         0         0         0         0
         0         0         0         0         0         0         0         0
         0         0         0         0         0         0         0         0
         0         0         0         0         0         0         0         0
         0         0         0         0         0         0         0         0
         0         0         0         0         0         0         0         0
         0         0         0         0         0         0         0         0
         0         0         0         0         0         0         0         0
         0         0         0         0         0         0         0         0
         0         0         0         0         0         0         0         0
         0         0         0         0         0         0         0         0
         0         0         0         0         0         0         0         0
         0         0         0         0         0         0         0         0
         0         0         0         0         0         0         0         0
         0         0         0         0         0         0         0         0
         0         0         0         0         0         0         0         0
         0         0         0         0         0         0         0         0
         0         0         0         0         0         0         0         0
         0         0         0         0         0         0         0         0
         0         0         0         0         0         0         0         0
         0         0         0         0         0         0         0         0
         0         0         0         0         0         0         0         0
         0         0         0         0         0         0         0         0
         0         0         0         0         0         0         0         0
         0         0         0         0         0         0         0         0
         0         0         0         0         0         0         0         0
         0         0         0         0         0         0         0         0
         0         0         0         0         0         0         0         0
         0         0         0         0         0         0         0         0
         0         0         0         0         0         0         0         0
         0         0         0         0         0         0         0         0
         0         0         0         0         0         0         0         0
         0         0         0         0         0         0         0         0
         0         0         0         0         0         0         0         0
         0         0         0         0         0         0         0         0
         0         0         0         0         0         0         0         0
         0         0         0         0         0         0         0         0
         0         0         0         0         0         0         0         0
         0         0         0         0         0         0         0         0
         0         0         0         0         0         0         0         0
         0         0         0         0         0         0         0         0
         0         0         0         0         0         0         0         0
         0         0         0         0         0         0         0         0
         0         0         0         0         0         0         0         0
         0         0         0         0         0         0         0         0
         0         0         0         0         0         0         0         0
         0         0         0         0         0         0         0         0
         0         0         0         0         0         0         0         0
         0         0         0         0         0         0         0         0
         0         0         0         0         0         0         0         0
         0         0         0         0         0         0         0         0
         0         0         0         0         0         0         0         0
         0         0         0         0         0         0         0         0
         0         0         0         0         0         0         0         0
         0         0         0         0         0         0         0         0
         0         0         0         0         0         0         0         0
         0         0         0         0         0         0         0         0
         0         0         0         0         0         0         0         0
         0         0         0         0         0         0         0         0
         0         0         0         0         0         0         0         0
         0         0         0         0         0         0         0         0
         0         0         0         0         0         0         0         0
         0         0         0         0         0         0         0         0
         0         0         0         0         0         0         0         0
         0         0         0         0         0         0         0         0
         0         0         0         0         0         0         0         0
         0         0         0         0         0         0         0         0
         0         0         0         0         0         0         0         0
         0         0         0         0         0         0         0         0
         0         0         0         0         0         0         0         0
         0         0         0         0         0         0         0         0
         0         0         0         0         0         0         0         0
         0         0         0         0         0         0         0         0
         0         0         0         0         0         0         0         0
         0         0         0         0         0         0         0         0
         0         0         0         0         0         0         0         0
         0         0         0         0         0         0         0         0
         0         0         0         0         0         0         0         0
         0         0         0         0         0         0         0         0
         0         0         0         0         0         0         0         0
         0         0         0         0         0         0         0         0
         0         0         0         0         0         0         0         0
         0         0         0         0         0         0         0         0
         0         0         0         0         0         0         0         0
         0         0         0         0         0         0         0         0
         0         0         0         0         0         0         0         0
         0         0         0         0         0         0         0         0
         0         0         0         0         0         0         0         0
         0         0         0         0         0         0         0         0
         0         0         0         0         0         0         0         0
         0         0         0         0         0         0         0         0
         0         0         0         0         0         0         0         0
         0         0         0         0         0         0         0         0
         0         0         0         0         0         0         0         0
         0         0         0         0         0         0         0         0
         0         0         0         0         0         0         0         0
         0         0         0         0         0         0         0         0
         0         0         0         0         0         0         0         0
         0         0         0         0         0         0         0         0
         0         0         0         0         0         0         0         0
         0         0         0         0         0         0         0         0
         0         0         0         0         0         0         0         0
         0         0         0         0         0         0         0         0
         0         0         0         0         0         0         0         0
         0         0         0         0         0         0         0         0
         0         0         0         0         0         0         0         0
         0         0         0         0         0         0         0         0
         0         0         0         0         0         0         0         0
         0         0         0         0         0         0         0         0
         0         0         0         0         0         0         0         0
         0         0         0         0         0         0         0         0
         0         0         0         0         0         0         0         0
         0         0         0         0         0         0         0         0
         0         0         0         0         0         0         0         0
         0         0         0         0         0         0         0         0
         0         0         0         0         0         0         0         0
         0         0         0         0         0         0         0         0
         0         0         0         0         0         0         0         0
         0         0         0         0         0         0         0         0
         0         0         0         0         0         0         0         0
         0         0         0         0         0         0         0         0
         0         0         0         0         0         0         0         0
         0         0         0         0         0         0         0         0
         0         0         0         0         0         0         0         0
         0         0         0         0         0         0         0         0
         0         0         0         0         0         0         0         0
         0         0         0         0         0         0         0         0
         0         0         0         0         0         0         0         0
         0         0         0         0         0         0         0         0
         0         0         0         0         0         0         0         0
         0         0         0         0         0         0         0         0
         0         0         0         0         0         0         0         0
         0         0         0         0         0         0         0         0
         0         0         0         0         0         0         0         0
         0         0         0         0         0         0         0         0
         0         0         0         0         0         0         0         0
         0         0         0         0         0         0         0         0
         0         0         0         0         0         0         0         0
         0         0         0         0         0         0         0         0
         0         0         0         0         0         0         0         0
         0         0         0         0         0         0         0         0
         0         0         0         0         0         0         0         0
         0         0         0         0         0         0         0         0
         0         0         0         0         0         0         0         0
         0         0         0         0         0         0         0         0
         0         0         0         0         0         0         0         0
         0         0         0         0         0         0         0         0
         0         0         0         0         0         0         0         0
         0         0         0         0         0         0         0         0
         0         0         0         0         0         0         0         0
         0         0         0         0         0         0         0         0
         0         0         0         0         0         0         0         0
         0         0         0         0         0         0         0         0
         0         0         0         0         0         0         0         0
         0         0         0         0         0         0         0         0
         0         0         0         0         0         0         0         0
         0         0         0         0         0         0         0         0
         0         0         0         0         0         0         0         0
         0         0         0         0         0         0         0         0
         0         0         0         0         0         0         0         0
         0         0         0         0         0         0         0         0
         0         0         0         0         0         0         0         0
         0         0         0         0         0         0         0         0
         0         0         0         0         0         0         0         0
         0         0         0         0         0         0         0         0
         0         0         0         0         0         0         0         0
         0         0         0         0         0         0         0         0
         0         0         0         0         0         0         0         0
         0         0         0         0         0         0         0         0
         0         0         0         0         0         0         0         0
         0         0         0         0         0         0         0         0
         0         0         0         0         0         0         0         0
         0         0         0         0         0         0         0         0
         0         0         0         0         0         0         0         0
         0         0         0         0         0         0         0         0
         0         0         0         0         0         0         0         0
         0         0         0         0         0         0         0         0
         0         0         0         0         0         0         0         0
         0         0         0         0         0         0         0         0
         0         0         0         0         0         0         0         0
         0         0         0         0         0         0         0         0
         0         0         0         0         0         0         0         0
         0         0         0         0         0         0         0         0
         0         0         0         0         0         0         0         0
         0         0         0         0         0         0         0         0
         0         0         0         0         0         0         0         0
         0         0         0         0         0         0         0         0
         0         0         0         0         0         0         0         0
         0         0         0         0         0         0         0         0
         0         0         0         0         0         0         0         0
         0         0         0         0         0         0         0         0
         0         0         0         0         0         0         0         0
         0         0         0         0         0         0         0         0
         0         0         0         0         0         0         0         0
         0         0         0         0         0         0         0         0
         0         0         0         0         0         0         0         0
         0         0         0         0         0         0         0         0
         0         0         0         0         0         0         0         0
         0         0         0         0         0         0         0         0
         0         0         0         0         0         0         0         0
         0         0         0         0         0         0         0         0
         0         0         0         0         0         0         0         0
         0         0         0         0         0         0         0         0
         0         0         0         0         0         0         0         0
         0         0         0         0         0         0         0         0
         0         0         0         0         0         0         0         0
         0         0         0         0         0         0         0         0
         0         0         0         0         0         0         0         0
         0         0         0         0         0         0         0         0
         0         0         0         0         0         0         0         0
         0         0         0         0         0         0         0         0
         0         0         0         0         0         0         0         0
         0         0         0         0         0         0         0         0
         0         0         0         0         0         0         0         0
         0         0         0         0         0         0         0         0
         0         0         0         0         0         0         0         0
         0         0         0         0         0         0         0         0
         0         0         0         0         0         0         0         0
         0         0         0         0         0         0         0         0
         0         0         0         0         0         0         0         0
         0         0         0         0         0         0         0         0
         0         0         0         0         0         0         0         0
         0         0         0         0         0         0         0         0
         0         0         0         0         0         0         0         0
         0         0         0         0         0         0         0         0
         0         0         0         0         0         0         0         0
         0         0         0         0         0         0         0         0
         0         0         0         0         0         0         0         0
         0         0         0         0         0         0         0         0
         0         0         0         0         0         0         0         0
         0         0         0         0         0         0         0         0
         0         0         0         0         0         0         0         0
         0         0         0         0         0         0         0         0
         0         0         0         0         0         0         0         0
         0         0         0         0         0         0         0         0
         0         0         0         0         0         0         0         0
         0         0         0         0         0         0         0         0
         0         0         0         0         0         0         0         0
         0         0         0         0         0         0         0         0
         0         0         0         0         0         0         0         0
         0         0         0         0         0         0         0         0
         0         0         0         0         0         0         0         0
         0         0         0         0         0         0         0         0
         0         0         0         0         0         0         0         0
         0         0         0         0         0         0         0         0
         0         0         0         0         0         0         0         0
         0         0         0         0         0         0         0         0
         0         0         0         0         0         0         0         0
         0         0         0         0         0         0         0         0
         0         0         0         0         0         0         0         0
         0         0         0         0         0         0         0         0
         0         0         0         0         0         0         0         0
         0         0         0         0         0         0         0         0
         0         0         0         0         0         0         0         0
         0         0         0         0         0         0         0         0
         0         0         0         0         0         0         0         0
         0         0         0         0         0         0         0         0
         0         0         0         0         0         0         0         0
         0         0         0         0         0         0         0         0
         0         0         0         0         0         0         0         0
         0         0         0         0         0         0         0         0
         0         0         0         0         0         0         0         0
         0         0         0         0         0         0         0         0
         0         0         0         0         0         0         0         0
         0         0         0         0         0         0         0         0
         0         0         0         0         0         0         0         0
         0         0         0         0         0         0         0         0
         0         0         0         0         0         0         0         0
         0         0         0         0         0         0         0         0
         0         0         0         0         0         0         0         0
         0         0         0         0         0         0         0         0
         0         0         0         0         0         0         0         0
         0         0         0         0         0         0         0         0
         0         0         0         0         0         0         0         0
         0         0         0         0         0         0         0         0
         0         0         0         0         0         0         0         0
         0         0         0         0         0         0         0         0
         0         0         0         0         0         0         0         0
         0         0         0         0         0         0         0         0
         0         0         0         0         0         0         0         0
         0         0         0         0         0         0         0         0
         0         0         0         0         0         0         0         0
         0         0         0         0         0         0         0         0
         0         0         0         0         0         0         0         0
         0         0         0         0         0         0         0         0
         0         0         0         0         0         0         0         0
         0         0         0         0         0         0         0         0
         0         0         0         0         0         0         0         0
         0         0         0         0         0         0         0         0
         0         0         0         0         0         0         0         0
         0         0         0         0         0         0         0         0
         0         0         0         0         0         0         0         0
         0         0         0         0         0         0         0         0
         0         0         0         0         0         0         0         0
         0         0         0         0         0         0         0         0
         0         0         0         0         0         0         0         0
         0         0         0         0         0         0         0         0
         0         0         0         0         0         0         0         0
         0         0         0         0         0         0         0         0
         0         0         0         0         0         0         0         0
         0         0         0         0         0         0         0         0
         0         0         0         0         0         0         0         0
         0         0         0         0         0         0         0         0
         0         0         0         0         0         0         0         0
         0         0         0         0         0         0         0         0
         0         0         0         0         0         0         0         0
         0         0         0         0         0         0         0         0
         0         0         0         0         0         0         0         0
         0         0         0         0         0         0         0         0
         0         0         0         0         0         0         0         0
         0         0         0         0         0         0         0         0
         0         0         0         0         0         0         0         0
         0         0         0         0         0         0         0         0
         0         0         0         0         0         0         0         0
         0         0         0         0         0         0         0         0
         0         0         0         0         0         0         0         0
         0         0         0         0         0         0         0         0
         0         0         0         0         0         0         0         0
         0         0         0         0         0         0         0         0
         0         0         0         0         0         0         0         0
         0         0         0         0         0         0         0         0
         0         0         0         0         0         0         0         0
         0         0         0         0         0         0         0         0
         0         0         0         0         0         0         0         0
         0         0         0         0         0         0         0         0
         0         0         0         0         0         0         0         0
         0         0         0         0         0         0         0         0
         0         0         0         0         0         0         0         0
         0         0         0         0         0         0         0         0
         0         0         0         0         0         0         0         0
         0         0         0         0         0         0         0         0
         0         0         0         0         0         0         0         0
         0         0         0         0         0         0         0         0
         0         0         0         0         0         0         0         0
         0         0         0         0         0         0         0         0
         0         0         0         0         0         0         0         0
         0         0         0         0         0         0         0         0
         0         0         0         0         0         0         0         0
         0         0         0         0         0         0         0         0
         0         0         0         0         0         0         0         0
         0         0         0         0         0         0         0         0
         0         0         0         0         0         0         0         0
         0         0         0         0         0         0         0         0
         0         0         0         0         0         0         0         0
         0         0         0         0         0         0         0         0
         0         0         0         0         0         0         0         0
         0         0         0         0         0         0         0         0
         0         0         0         0         0         0         0         0
         0         0         0         0         0         0         0         0
         0         0         0         0         0         0         0         0
         0         0         0         0         0         0         0         0
         0         0         0         0         0         0         0         0
         0         0         0         0         0         0         0         0
         0         0         0         0         0         0         0         0
         0         0         0         0         0         0         0         0
         0         0         0         0         0         0         0         0
         0         0         0         0         0         0         0         0
         0         0         0         0         0         0         0         0
         0         0         0         0         0         0         0         0
         0         0         0         0         0         0         0         0
         0         0         0         0         0         0         0         0
         0         0         0         0         0         0         0         0
         0         0         0         0         0         0         0         0
         0         0         0         0         0         0         0         0
         0         0         0         0         0         0         0         0
         0         0         0         0         0         0         0         0
         0         0         0         0         0         0         0         0
         0         0         0         0         0         0         0         0
         0         0         0         0         0         0         0         0
         0         0         0         0         0         0         0         0
         0         0         0         0         0         0         0         0
         0         0         0         0         0         0         0         0
         0         0         0         0         0         0         0         0
         0         0         0         0         0         0         0         0
         0         0         0         0         0         0         0         0
         0         0         0         0         0         0         0         0
         0         0         0         0         0         0         0         0
         0         0         0         0         0         0         0         0
         0         0         0         0         0         0         0         0
         0         0         0         0         0         0         0         0
         0         0         0         0         0         0         0         0
         0         0         0         0         0         0         0         0
         0         0         0         0         0         0         0         0
         0         0         0         0         0         0         0         0
         0         0         0         0         0         0         0         0
         0         0         0         0         0         0         0         0
         0         0         0         0         0         0         0         0
         0         0         0         0         0         0         0         0
         0         0         0         0         0         0         0         0
         0         0         0         0         0         0         0         0
         0         0         0         0         0         0         0         0
         0         0         0         0         0         0         0         0
         0         0         0         0         0         0         0         0
         0         0         0         0         0         0         0         0
         0         0         0         0         0         0         0         0
         0         0         0         0         0         0         0         0
         0         0         0         0         0         0         0         0
         0         0         0         0         0         0         0         0
         0         0         0         0         0         0         0         0
         0         0         0         0         0         0         0         0
         0         0         0         0         0         0         0         0
         0         0         0         0         0         0         0         0
         0         0         0         0         0         0         0         0
         0         0         0         0         0         0         0         0
         0         0         0         0         0         0         0         0
         0         0         0         0         0         0         0         0
         0         0         0         0         0         0         0         0
         0         0         0         0         0         0         0         0
         0         0         0         0         0         0         0         0
         0         0         0         0         0         0         0         0
         0         0         0         0         0         0         0         0
         0         0         0         0         0         0         0         0
         0         0         0         0         0         0         0         0
         0         0         0         0         0         0         0         0
         0         0         0         0         0         0         0         0
         0         0         0         0         0         0         0         0
         0         0         0         0         0         0         0         0
         0         0         0         0         0         0         0         0
         0         0         0         0         0         0         0         0
         0         0         0         0         0         0         0         0
         0         0         0         0         0         0         0         0
         0         0         0         0         0         0         0         0
         0         0         0         0         0         0         0         0
         0         0         0         0         0         0         0         0
         0         0         0         0         0         0         0         0
         0         0         0         0         0         0         0         0
         0         0         0         0         0         0         0         0
         0         0         0         0         0         0         0         0
         0         0         0         0         0         0         0         0
         0         0         0         0         0         0         0         0
         0         0         0         0         0         0         0         0
         0         0         0         0         0         0         0         0
         0         0         0         0         0         0         0         0
         0         0         0         0         0         0         0         0
         0         0         0         0         0         0         0         0
         0         0         0         0         0         0         0         0
         0         0         0         0         0         0         0         0
         0         0         0         0         0         0         0         0
         0         0         0         0         0         0         0         0
         0         0         0         0         0         0         0         0
         0         0         0         0         0         0         0         0
         0         0         0         0         0         0         0         0
         0         0         0         0         0         0         0         0
         0         0         0         0         0         0         0         0
         0         0         0         0         0         0         0         0
         0         0         0         0         0         0         0         0
         0         0         0         0         0         0         0         0
         0         0         0         0         0         0         0         0
         0         0         0         0         0         0         0         0
         0         0         0         0         0         0         0         0
         0         0         0         0         0         0         0         0
         0         0         0         0         0         0         0         0
         0         0         0         0         0         0         0         0
         0         0         0         0         0         0         0         0
         0         0         0         0         0         0         0         0
         0         0         0         0         0         0         0         0
         0         0         0         0         0         0         0         0
         0         0         0         0         0         0         0         0
         0         0         0         0         0         0         0         0
         0         0         0         0         0         0         0         0
         0         0         0         0         0         0         0         0
         0         0         0         0         0         0         0         0
         0         0         0         0         0         0         0         0
         0         0         0         0         0         0         0         0
         0         0         0         0         0         0         0         0
         0         0         0         0         0         0         0         0
         0         0         0         0         0         0         0         0
         0         0         0         0         0         0         0         0
         0         0         0         0         0         0         0         0
         0         0         0         0         0         0         0         0
         0         0         0         0         0         0         0         0
         0         0         0         0         0         0         0         0
         0         0         0         0         0         0         0         0
         0         0         0         0         0         0         0         0
         0         0         0         0         0         0         0         0
         0         0         0         0         0         0         0         0
         0         0         0         0         0         0         0         0
         0         0         0         0         0         0         0         0
         0         0         0         0         0         0         0         0
         0         0         0         0         0         0         0         0
         0         0         0         0         0         0         0         0
         0         0         0         0         0         0         0         0
         0         0         0         0         0         0         0         0
         0         0         0         0         0         0         0         0
         0         0         0         0         0         0         0         0
         0         0         0         0         0         0         0         0
         0         0         0         0         0         0         0         0
         0         0         0         0         0         0         0         0
         0         0         0         0         0         0         0         0
         0         0         0         0         0         0         0         0
         0         0         0         0         0         0         0         0
         0         0         0         0         0         0         0         0
         0         0         0         0         0         0         0         0
         0         0         0         0         0         0         0         0
         0         0         0         0         0         0         0         0
         0         0         0         0         0         0         0         0
         0         0         0         0         0         0         0         0
         0         0         0         0         0         0         0         0
         0         0         0         0         0         0         0         0
         0         0         0         0         0         0         0         0
         0         0         0         0         0         0         0         0
         0         0         0         0         0         0         0         0
         0         0         0         0         0         0         0         0
         0         0         0         0         0         0         0         0
         0         0         0         0         0         0         0         0
         0         0         0         0         0         0         0         0
         0         0         0         0         0         0         0         0
         0         0         0         0         0         0         0         0
         0         0         0         0         0         0         0         0
         0         0         0         0         0         0         0         0
         0         0         0         0         0         0         0         0
         0         0         0         0         0         0         0         0
         0         0         0         0         0         0         0         0
         0         0         0         0         0         0         0         0
         0         0         0         0         0         0         0         0
         0         0         0         0         0         0         0         0
         0         0         0         0         0         0         0         0
         0         0         0         0         0         0         0         0
         0         0         0         0         0         0         0         0
         0         0         0         0         0         0         0         0
         0         0         0         0         0         0         0         0
         0         0         0         0         0         0         0         0
         0         0         0         0         0         0         0         0
         0         0         0         0         0         0         0         0
         0         0         0         0         0         0         0         0
         0         0         0         0         0         0         0         0
         0         0         0         0         0         0         0         0
         0         0         0         0         0         0         0         0
         0         0         0         0         0         0         0         0
         0         0         0         0         0         0         0         0
         0         0         0         0         0         0         0         0
         0         0         0         0         0         0         0         0
         0         0         0         0         0         0         0         0
         0         0         0         0         0         0         0         0
         0         0         0         0         0         0         0         0
         0         0         0         0         0         0         0         0
         0         0         0         0         0         0         0         0
         0         0         0         0         0         0         0         0
         0         0         0         0         0         0         0         0
         0         0         0         0         0         0         0         0
         0         0         0         0         0         0         0         0
         0         0         0         0         0         0         0         0
         0         0         0         0         0         0         0         0
         0         0         0         0         0         0         0         0
         0         0         0         0         0         0         0         0
         0         0         0         0         0         0         0         0
         0         0         0         0         0         0         0         0
         0         0         0         0         0         0         0         0
         0         0         0         0         0         0         0         0
         0         0         0         0         0         0         0         0
         0         0         0         0         0         0         0         0
         0         0         0         0         0         0         0         0
         0         0         0         0         0         0         0         0
         0         0         0         0         0         0         0         0
         0         0         0         0         0         0         0         0
         0         0         0         0         0         0         0         0
         0         0         0         0         0         0         0         0
         0         0         0         0         0         0         0         0
         0         0         0         0         0         0         0         0
         0         0         0         0         0         0         0         0
         0         0         0         0         0         0         0         0
         0         0         0         0         0         0         0         0
         0         0         0         0         0         0         0         0
         0         0         0         0         0         0         0         0
         0         0         0         0         0         0         0         0
         0         0         0         0         0         0         0         0
         0         0         0         0         0         0         0         0
         0         0         0         0         0         0         0         0
         0         0         0         0         0         0         0         0
         0         0         0         0         0         0         0         0
         0         0         0         0         0         0         0         0
         0         0         0         0         0         0         0         0
         0         0         0         0         0         0         0         0
         0         0         0         0         0         0         0         0
         0         0         0         0         0         0         0         0
         0         0         0         0         0         0         0         0
         0         0         0         0         0         0         0         0
         0         0         0         0         0         0         0         0
         0         0         0         0         0         0         0         0
         0         0         0         0         0         0         0         0
         0         0         0         0         0         0         0         0
         0         0         0         0         0         0         0         0
         0         0         0         0         0         0         0         0
         0         0         0         0         0         0         0         0
         0         0         0         0         0         0         0         0
         0         0         0         0         0         0         0         0
         0         0         0         0         0         0         0         0
         0         0         0         0         0         0         0         0
         0         0         0         0         0         0         0         0
         0         0         0         0         0         0         0         0
         0         0         0         0         0         0         0         0
         0         0         0         0         0         0         0         0
         0         0         0         0         0         0         0         0
         0         0         0         0         0         0         0         0
         0         0         0         0         0         0         0         0
         0         0         0         0         0         0         0         0
         0         0         0         0         0         0         0         0
         0         0         0         0         0         0         0         0
         0         0         0         0         0         0         0         0
         0         0         0         0         0         0         0         0
         0         0         0         0         0         0         0         0
         0         0         0         0         0         0         0         0
         0         0         0         0         0         0         0         0
         0         0         0         0         0         0         0         0
         0         0         0         0         0         0         0         0
         0         0         0         0         0         0         0         0
         0         0         0         0         0         0         0         0
         0         0         0         0         0         0         0         0
         0         0         0         0         0         0         0         0
         0         0         0         0         0         0         0         0
         0         0         0         0         0         0         0         0
         0         0         0         0         0         0         0         0
         0         0         0         0         0         0         0         0
         0         0         0         0         0         0         0         0
         0         0         0         0         0         0         0         0
         0         0         0         0         0         0         0         0
         0         0         0         0         0         0         0         0
         0         0         0         0         0         0         0         0
         0         0         0         0         0         0         0         0
         0         0         0         0         0         0         0         0
         0         0         0         0         0         0         0         0
         0         0         0         0         0         0         0         0
         0         0         0         0         0         0         0         0
         0         0         0         0         0         0         0         0
         0         0         0         0         0         0         0         0
         0         0         0         0         0         0         0         0
         0         0         0         0         0         0         0         0
         0         0         0         0         0         0         0         0
         0         0         0         0         0         0         0         0
         0         0         0         0         0         0         0         0
         0         0         0         0         0         0         0         0
         0         0         0         0         0         0         0         0
         0         0         0         0         0         0         0         0
         0         0         0         0         0         0         0         0
         0         0         0         0         0         0         0         0
         0         0         0         0         0         0         0         0
         0         0         0         0         0         0         0         0
         0         0         0         0         0         0         0         0
         0         0         0         0         0         0         0         0
         0         0         0         0         0         0         0         0
         0         0         0         0         0         0         0         0
         0         0         0         0         0         0         0         0
         0         0         0         0         0         0         0         0
         0         0         0         0         0         0         0         0
         0         0         0         0         0         0         0         0
         0         0         0         0         0         0         0         0
         0         0         0         0         0         0         0         0
         0         0         0         0         0         0         0         0
         0         0         0         0         0         0         0         0
         0         0         0         0         0         0         0         0
         0         0         0         0         0         0         0         0
         0         0         0         0         0         0         0         0
         0         0         0         0         0         0         0         0
         0         0         0         0         0         0         0         0
         0         0         0         0         0         0         0         0
         0         0         0         0         0         0         0         0
         0         0         0         0         0         0         0         0
         0         0         0         0         0         0         0         0
         0         0         0         0         0         0         0         0
         0         0         0         0         0         0         0         0
         0         0         0         0         0         0         0         0
         0         0         0         0         0         0         0         0
         0         0         0         0         0         0         0         0
         0         0         0         0         0         0         0         0
         0         0         0         0         0         0         0         0
         0         0         0         0         0         0         0         0
         0         0         0         0         0         0         0         0
         0         0         0         0         0         0         0         0
         0         0         0         0         0         0         0         0
         0         0         0         0         0         0         0         0
         0         0         0         0         0         0         0         0
         0         0         0         0         0         0         0         0
         0         0         0         0         0         0         0         0
         0         0         0         0         0         0         0         0
         0         0         0         0         0         0         0         0
         0         0         0         0         0         0         0         0
         0         0         0         0         0         0         0         0
         0         0         0         0         0         0         0         0
         0         0         0         0         0         0         0         0
         0         0         0         0         0         0         0         0
         0         0         0         0         0         0         0         0
         0         0         0         0         0         0         0         0
         0         0         0         0         0         0         0         0
         0         0         0         0         0         0         0         0
         0         0         0         0         0         0         0         0
         0         0         0         0         0         0         0         0
         0         0         0         0         0         0         0         0
         0         0         0         0         0         0         0         0
         0         0         0         0         0         0         0         0
         0         0         0         0         0         0         0         0
         0         0         0         0         0         0         0         0
         0         0         0         0         0         0         0         0
         0         0         0         0         0         0         0         0
         0         0         0         0         0         0         0         0
         0         0         0         0         0         0         0         0
         0         0         0         0         0         0         0         0
         0         0         0         0         0         0         0         0
         0         0         0         0         0         0         0         0
         0         0         0         0         0         0         0         0
         0         0         0         0         0         0         0         0
         0         0         0         0         0         0         0         0
         0         0         0         0         0         0         0         0
         0         0         0         0         0         0         0         0
         0         0         0         0         0         0         0         0
         0         0         0         0         0         0         0         0
         0         0         0         0         0         0         0         0
         0         0         0         0         0         0         0         0
         0         0         0         0         0         0         0         0
         0         0         0         0         0         0         0         0
         0         0         0         0         0         0         0         0
         0         0         0         0         0         0         0         0
         0         0         0         0         0         0         0         0
         0         0         0         0         0         0         0         0
         0         0         0         0         0         0         0         0
         0         0         0         0         0         0         0         0
         0         0         0         0         0         0         0         0
         0         0         0         0         0         0         0         0
         0         0         0         0         0         0         0         0
         0         0         0         0         0         0         0         0
         0         0         0         0         0         0         0         0
         0         0         0         0         0         0         0         0
         0         0         0         0         0         0         0         0
         0         0         0         0         0         0         0         0
         0         0         0         0         0         0         0         0
         0         0         0         0         0         0         0         0
         0         0         0         0         0         0         0         0
         0         0         0         0         0         0         0         0
         0         0         0         0         0         0         0         0
         0         0         0         0         0         0         0         0
         0         0         0         0         0         0         0         0
         0         0         0         0         0         0         0         0
         0         0         0         0         0         0         0         0
         0         0         0         0         0         0         0         0
         0         0         0         0         0         0         0         0
         0         0         0         0         0         0         0         0
         0         0         0         0         0         0         0         0
         0         0         0         0         0         0         0         0
         0         0         0         0         0         0         0         0
         0         0         0         0         0         0         0         0
         0         0         0         0         0         0         0         0
         0         0         0         0         0         0         0         0
         0         0         0         0         0         0         0         0
         0         0         0         0         0         0         0         0
         0         0         0         0         0         0         0         0
         0         0         0         0         0         0         0         0
         0         0         0         0         0         0         0         0
         0         0         0         0         0         0         0         0
         0         0         0         0         0         0         0         0
         0         0         0         0         0         0         0         0
         0         0         0         0         0         0         0         0
         0         0         0         0         0         0         0         0
         0         0         0         0         0         0         0         0
         0         0         0         0         0         0         0         0
         0         0         0         0         0         0         0         0
         0         0         0         0         0         0         0         0
         0         0         0         0         0         0         0         0
         0         0         0         0         0         0         0         0
         0         0         0         0         0         0         0         0
         0         0         0         0         0         0         0         0
         0         0         0         0         0         0         0         0
         0         0         0         0         0         0         0         0
         0         0         0         0         0         0         0         0
         0         0         0         0         0         0         0         0
         0         0         0         0         0         0         0         0
         0         0         0         0         0         0         0         0
         0         0         0         0         0         0         0         0
         0         0         0         0         0         0         0         0
         0         0         0         0         0         0         0         0
         0         0         0         0         0         0         0         0
         0         0         0         0         0         0         0         0
         0         0         0         0         0         0         0         0
         0         0         0         0         0         0         0         0
         0         0         0         0         0         0         0         0
         0         0         0         0         0         0         0         0
         0         0         0         0         0         0         0         0
         0         0         0         0         0         0         0         0
         0         0         0         0         0         0         0         0
         0         0         0         0         0         0         0         0
         0         0         0         0         0         0         0         0
         0         0         0         0         0         0         0         0
         0         0         0         0         0         0         0         0
         0         0         0         0         0         0         0         0
         0         0         0         0         0         0         0         0
         0         0         0         0         0         0         0         0
         0         0         0         0         0         0         0         0
         0         0         0         0         0         0         0         0
         0         0         0         0         0         0         0         0
         0         0         0         0         0         0         0         0
         0         0         0         0         0         0         0         0
         0         0         0         0         0         0         0         0
         0         0         0         0         0         0         0         0
         0         0         0         0         0         0         0         0
         0         0         0         0         0         0         0         0
         0         0         0         0         0         0         0         0
         0         0         0         0         0         0         0         0
         0         0         0         0         0         0         0         0
         0         0         0         0         0         0         0         0
         0         0         0         0         0         0         0         0
         0         0         0         0         0         0         0         0
         0         0         0         0         0         0         0         0
         0         0         0         0         0         0         0         0
         0         0         0         0         0         0         0         0
         0         0         0         0         0         0         0         0
         0         0         0         0         0         0         0         0
         0         0         0         0         0         0         0         0
         0         0         0         0         0         0         0         0
         0         0         0         0         0         0         0         0
         0         0         0         0         0         0         0         0
         0         0         0         0         0         0         0         0
         0         0         0         0         0         0         0         0
         0         0         0         0         0         0         0         0
         0         0         0         0         0         0         0         0
         0         0         0         0         0         0         0         0
         0         0         0         0         0         0         0         0
         0         0         0         0         0         0         0         0
         0         0         0         0         0         0         0         0
         0         0         0         0         0         0         0         0
         0         0         0         0         0         0         0         0
         0         0         0         0         0         0         0         0
         0         0         0         0         0         0         0         0
         0         0         0         0         0         0         0         0
         0         0         0         0         0         0         0         0
         0         0         0         0         0         0         0         0
         0         0         0         0         0         0         0         0
         0         0         0         0         0         0         0         0
         0         0         0         0         0         0         0         0
         0         0         0         0         0         0         0         0
         0         0         0         0         0         0         0         0
         0         0         0         0         0         0         0         0
         0         0         0         0         0         0         0         0
         0         0         0         0         0         0         0         0
         0         0         0         0         0         0         0         0
         0         0         0         0         0         0         0         0
         0         0         0         0         0         0         0         0
         0         0         0         0         0         0         0         0
         0         0         0         0         0         0         0         0
         0         0         0         0         0         0         0         0
         0         0         0         0         0         0         0         0
         0         0         0         0         0         0         0         0
         0         0         0         0         0         0         0         0
         0         0         0         0         0         0         0         0
         0         0         0         0         0         0         0         0
         0         0         0         0         0         0         0         0
         0         0         0         0         0         0         0         0
         0         0         0         0         0         0         0         0
         0         0         0         0         0         0         0         0
         0         0         0         0         0         0         0         0
         0         0         0         0         0         0         0         0
         0         0         0         0         0         0         0         0
         0         0         0         0         0         0         0         0
         0         0         0         0         0         0         0         0
         0         0         0         0         0         0         0         0
         0         0         0         0         0         0         0         0
         0         0         0         0         0         0         0         0
         0         0         0         0         0         0         0         0
         0         0         0         0         0         0         0         0
         0         0         0         0         0         0         0         0
         0         0         0         0         0         0         0         0
         0         0         0         0         0         0         0         0
         0         0         0         0         0         0         0         0
         0         0         0         0         0         0         0         0
         0         0         0         0         0         0         0         0
         0         0         0         0         0         0         0         0
         0         0         0         0         0         0         0         0
         0         0         0         0         0         0         0         0
         0         0         0         0         0         0         0         0
         0         0         0         0         0         0         0         0
         0         0         0         0         0         0         0         0
         0         0         0         0         0         0         0         0
         0         0         0         0         0         0         0         0
         0         0         0         0         0         0         0         0
         0         0         0         0         0         0         0         0
         0         0         0         0         0         0         0         0
         0         0         0         0         0         0         0         0
         0         0         0         0         0         0         0         0
         0         0         0         0         0         0         0         0
         0         0         0         0         0         0         0         0
         0         0         0         0         0         0         0         0
         0         0         0         0         0         0         0         0
         0         0         0         0         0         0         0         0
         0         0         0         0         0         0         0         0
         0         0         0         0         0         0         0         0
         0         0         0         0         0         0         0         0
         0         0         0         0         0         0         0         0
         0         0         0         0         0         0         0         0
         0         0         0         0         0         0         0         0
         0         0         0         0         0         0         0         0
         0         0         0         0         0         0         0         0
         0         0         0         0         0         0         0         0
         0         0         0         0         0         0         0         0
         0         0         0         0         0         0         0         0
         0         0         0         0         0         0         0         0
         0         0         0         0         0         0         0         0
         0         0         0         0         0         0         0         0
         0         0         0         0         0         0         0         0
         0         0         0         0         0         0         0         0
         0         0         0         0         0         0         0         0
         0         0         0         0         0         0         0         0
         0         0         0         0         0         0         0         0
         0         0         0         0         0         0         0         0
         0         0         0         0         0         0         0         0
         0         0         0         0         0         0         0         0
         0         0         0         0         0         0         0         0
         0         0         0         0         0         0         0         0
         0         0         0         0         0         0         0         0
         0         0         0         0         0         0         0         0
         0         0         0         0         0         0         0         0
         0         0         0         0         0         0         0         0
         0         0         0         0         0         0         0         0
         0         0         0         0         0         0         0         0
         0         0         0         0         0         0         0         0
         0         0         0         0         0         0         0         0
         0         0         0         0         0         0         0         0
         0         0         0         0         0         0         0         0
         0         0         0         0         0         0         0         0
         0         0         0         0         0         0         0         0
         0         0         0         0         0         0         0         0
         0         0         0         0         0         0         0         0
         0         0         0         0         0         0         0         0
         0         0         0         0         0         0         0         0
         0         0         0         0         0         0         0         0
         0         0         0         0         0         0         0         0
         0         0         0         0         0         0         0         0
         0         0         0         0         0         0         0         0
         0         0         0         0         0         0         0         0
         0         0         0         0         0         0         0         0
         0         0         0         0         0         0         0         0
         0         0         0         0         0         0         0         0
         0         0         0         0         0         0         0         0
         0         0         0         0         0         0         0         0
         0         0         0         0         0         0         0         0
         0         0         0         0         0         0         0         0
         0         0         0         0         0         0         0         0
         0         0         0         0         0         0         0         0
         0         0         0         0         0         0         0         0
         0         0         0         0         0         0         0         0
         0         0         0         0         0         0         0         0
         0         0         0         0         0         0         0         0
         0         0         0         0         0         0         0         0
         0         0         0         0         0         0         0         0
         0         0         0         0         0         0         0         0
         0         0         0         0         0         0         0         0
         0         0         0         0         0         0         0         0
         0         0         0         0         0         0         0         0
         0         0         0         0         0         0         0         0
         0         0         0         0         0         0         0         0
         0         0         0         0         0         0         0         0
         0         0         0         0         0         0         0         0
         0         0         0         0         0         0         0         0
         0         0         0         0         0         0         0         0
         0         0         0         0         0         0         0         0
         0         0         0         0         0         0         0         0
         0         0         0         0         0         0         0         0
         0         0         0         0         0         0         0         0
         0         0         0         0         0         0         0         0
         0         0         0         0         0         0         0         0
         0         0         0         0         0         0         0         0
         0         0         0         0         0         0         0         0
         0         0         0         0         0         0         0         0
         0         0         0         0         0         0         0         0
         0         0         0         0         0         0         0         0
         0         0         0         0         0         0         0         0
         0         0         0         0         0         0         0         0
         0         0         0         0         0         0         0         0
         0         0         0         0         0         0         0         0
         0         0         0         0         0         0         0         0
         0         0         0         0         0         0         0         0
         0         0         0         0         0         0         0         0
         0         0         0         0         0         0         0         0
         0         0         0         0         0         0         0         0
         0         0         0         0         0         0         0         0
         0         0         0         0         0         0         0         0
         0         0         0         0         0         0         0         0
         0         0         0         0         0         0         0         0
         0         0         0         0         0         0         0         0
         0         0         0         0         0         0         0         0
         0         0         0         0         0         0         0         0
         0         0         0         0         0         0         0         0
         0         0         0         0         0         0         0         0
         0         0         0         0         0         0         0         0
         0         0         0         0         0         0         0         0
         0         0         0         0         0         0         0         0
         0         0         0         0         0         0         0         0
         0         0         0         0         0         0         0         0
         0         0         0         0         0         0         0         0
         0         0         0         0         0         0         0         0
         0         0         0         0         0         0         0         0
         0         0         0         0         0         0         0         0
         0         0         0         0         0         0         0         0
         0         0         0         0         0         0         0         0
         0         0         0         0         0         0         0         0
         0         0         0         0         0         0         0         0
         0         0         0         0         0         0         0         0
         0         0         0         0         0         0         0         0
         0         0         0         0         0         0         0         0
         0         0         0         0         0         0         0         0
         0         0         0         0         0         0         0         0
         0         0         0         0         0         0         0         0
         0         0         0         0         0         0         0         0
         0         0         0         0         0         0         0         0
         0         0         0         0         0         0         0         0
         0         0         0         0         0         0         0         0
         0         0         0         0         0         0         0         0
         0         0         0         0         0         0         0         0
         0         0         0         0         0         0         0         0
         0         0         0         0         0         0         0         0
         0         0         0         0         0         0         0         0
         0         0         0         0         0         0         0         0
         0         0         0         0         0         0         0         0
         0         0         0         0         0         0         0         0
         0         0         0         0         0         0         0         0
         0         0         0         0         0         0         0         0
         0         0         0         0         0         0         0         0
         0         0         0         0         0         0         0         0
         0         0         0         0         0         0         0         0
         0         0         0         0         0         0         0         0
         0         0         0         0         0         0         0         0
         0         0         0         0         0         0         0         0
         0         0         0         0         0         0         0         0
         0         0         0         0         0         0         0         0
         0         0         0         0         0         0         0         0
         0         0         0         0         0         0         0         0
         0         0         0         0         0         0         0         0
         0         0         0         0         0         0         0         0
         0         0         0         0         0         0         0         0
         0         0         0         0         0         0         0         0
         0         0         0         0         0         0         0         0
         0         0         0         0         0         0         0         0
         0         0         0         0         0         0         0         0
         0         0         0         0         0         0         0         0
         0         0         0         0         0         0         0         0
         0         0         0         0         0         0         0         0
         0         0         0         0         0         0         0         0
         0         0         0         0         0         0         0         0
         0         0         0         0         0         0         0         0
         0         0         0         0         0         0         0         0
         0         0         0         0         0         0         0         0
         0         0         0         0         0         0         0         0
         0         0         0         0         0         0         0         0
         0         0         0         0         0         0         0         0
         0         0         0         0         0         0         0         0
         0         0         0         0         0         0         0         0
         0         0         0         0         0         0         0         0
         0         0         0         0         0         0         0         0
         0         0         0         0         0         0         0         0
         0         0         0         0         0         0         0         0
         0         0         0         0         0         0         0         0
         0         0         0         0         0         0         0         0
         0         0         0         0         0         0         0         0
         0         0         0         0         0         0         0         0
         0         0         0         0         0         0         0         0
         0         0         0         0         0         0         0         0
         0         0         0         0         0         0         0         0
         0         0         0         0         0         0         0         0
         0         0         0         0         0         0         0         0
         0         0         0         0         0         0         0         0
         0         0         0         0         0         0         0         0
         0         0         0         0         0         0         0         0
         0         0         0         0         0         0         0         0
         0         0         0         0         0         0         0         0
         0         0         0         0         0         0         0         0
         0         0         0         0         0         0         0         0
         0         0         0         0         0         0         0         0
         0         0         0         0         0         0         0         0
         0         0         0         0         0         0         0         0
         0         0         0         0         0         0         0         0
         0         0         0         0         0         0         0         0
         0         0         0         0         0         0         0         0
         0         0         0         0         0         0         0         0
         0         0         0         0         0         0         0         0
         0         0         0         0         0         0         0         0
         0         0         0         0         0         0         0         0
         0         0         0         0         0         0         0         0
         0         0         0         0         0         0         0         0
         0         0         0         0         0         0         0         0
         0         0         0         0         0         0         0         0
         0         0         0         0         0         0         0         0
         0         0         0         0         0         0         0         0
         0         0         0         0         0         0         0         0
         0         0         0         0         0         0         0         0
         0         0         0         0         0         0         0         0
         0         0         0         0         0         0         0         0
         0         0         0         0         0         0         0         0
         0         0         0         0         0         0         0         0
         0         0         0         0         0         0         0         0
         0         0         0         0         0         0         0         0
         0         0         0         0         0         0         0         0
         0         0         0         0         0         0         0         0
         0         0         0         0         0         0         0         0
         0         0         0         0         0         0         0         0
         0         0         0         0         0         0         0         0
         0         0         0         0         0         0         0         0
         0         0         0         0         0         0         0         0
         0         0         0         0         0         0         0         0
         0         0         0         0         0         0         0         0
         0         0         0         0         0         0         0         0
         0         0         0         0         0         0         0         0
         0         0         0         0         0         0         0         0
         0         0         0         0         0         0         0         0
         0         0         0         0         0         0         0         0
         0         0         0         0         0         0         0         0
         0         0         0         0         0         0         0         0
         0         0         0         0         0         0         0         0
         0         0         0         0         0         0         0         0
         0         0         0         0         0         0         0         0
         0         0         0         0         0         0         0         0
         0         0         0         0         0         0         0         0
         0         0         0         0         0         0         0         0
         0         0         0         0         0         0         0         0
         0         0         0         0         0         0         0         0
         0         0         0         0         0         0         0         0
         0         0         0         0         0         0         0         0
         0         0         0         0         0         0         0         0
         0         0         0         0         0         0         0         0
         0         0         0         0         0         0         0         0
         0         0         0         0         0         0         0         0
         0         0         0         0         0         0         0         0
         0         0         0         0         0         0         0         0
         0         0         0         0         0         0         0         0
         0         0         0         0         0         0         0         0
         0         0         0         0         0         0         0         0
         0         0         0         0         0         0         0         0
         0         0         0         0         0         0         0         0
         0         0         0         0         0         0         0         0
         0         0         0         0         0         0         0         0
         0         0         0         0         0         0         0         0
         0         0         0         0         0         0         0         0
         0         0         0         0         0         0         0         0
         0         0         0         0         0         0         0         0
         0         0         0         0         0         0         0         0
         0         0         0         0         0         0         0         0
         0         0         0         0         0         0         0         0
         0         0         0         0         0         0         0         0
         0         0         0         0         0         0         0         0
         0         0         0         0         0         0         0         0
         0         0         0         0         0         0         0         0
         0         0         0         0         0         0         0         0
         0         0         0         0         0         0         0         0
         0         0         0         0         0         0         0         0
         0         0         0         0         0         0         0         0
         0         0         0         0         0         0         0         0
         0         0         0         0         0         0         0         0
         0         0         0         0         0         0         0         0
         0         0         0         0         0         0         0         0
         0         0         0         0         0         0         0         0
         0         0         0         0         0         0         0         0
         0         0         0         0         0         0         0         0
         0         0         0         0         0         0         0         0
         0         0         0         0         0         0         0         0
         0         0         0         0         0         0         0         0
         0         0         0         0         0         0         0         0
         0         0         0         0         0         0         0         0
         0         0         0         0         0         0         0         0
         0         0         0         0         0         0         0         0
         0         0         0         0         0         0         0         0
         0         0         0         0         0         0         0         0
         0         0         0         0         0         0         0         0
         0         0         0         0         0         0         0         0
         0         0         0         0         0         0         0         0
         0         0         0         0         0         0         0         0
         0         0         0         0         0         0         0         0
         0         0         0         0         0         0         0         0
         0         0         0         0         0         0         0         0
         0         0         0         0         0         0         0         0
         0         0         0         0         0         0         0         0
         0         0         0         0         0         0         0         0
         0         0         0         0         0         0         0         0
         0         0         0         0         0         0         0         0
         0         0         0         0         0         0         0         0
         0         0         0         0         0         0         0         0
         0         0         0         0         0         0         0         0
         0         0         0         0         0         0         0         0
         0         0         0         0         0         0         0         0
         0         0         0         0         0         0         0         0
         0         0         0         0         0         0         0         0
         0         0         0         0         0         0         0         0
         0         0         0         0         0         0         0         0
         0         0         0         0         0         0         0         0
         0         0         0         0         0         0         0         0
         0         0         0         0         0         0         0         0
         0         0         0         0         0         0         0         0
         0         0         0         0         0         0         0         0
         0         0         0         0         0         0         0         0
         0         0         0         0         0         0         0         0
         0         0         0         0         0         0         0         0
         0         0         0         0         0         0         0         0
         0         0         0         0         0         0         0         0
         0         0         0         0         0         0         0         0
         0         0         0         0         0         0         0         0
         0         0         0         0         0         0         0         0
         0         0         0         0         0         0         0         0
         0         0         0         0         0         0         0         0
         0         0         0         0         0         0         0         0
         0         0         0         0         0         0         0         0
         0         0         0         0         0         0         0         0
         0         0         0         0         0         0         0         0
         0         0         0         0         0         0         0         0
         0         0         0         0         0         0         0         0
         0         0         0         0         0         0         0         0
         0         0         0         0         0         0         0         0
         0         0         0         0         0         0         0         0
         0         0         0         0         0         0         0         0
         0         0         0         0         0         0         0         0
         0         0         0         0         0         0         0         0
         0         0         0         0         0         0         0         0
         0         0         0         0         0         0         0         0
         0         0         0         0         0         0         0         0
         0         0         0         0         0         0         0         0
         0         0         0         0         0         0         0         0
         0         0         0         0         0         0         0         0
         0         0         0         0         0         0         0         0
         0         0         0         0         0         0         0         0
         0         0         0         0         0         0         0         0
         0         0         0         0         0         0         0         0
         0         0         0         0         0         0         0         0
         0         0         0         0         0         0         0         0
         0         0         0         0         0         0         0         0
         0         0         0         0         0         0         0         0
         0         0         0         0         0         0         0         0
         0         0         0         0         0         0         0         0
         0         0         0         0         0         0         0         0
         0         0         0         0         0         0         0         0
         0         0         0         0         0         0         0         0
         0         0         0         0         0         0         0         0
         0         0         0         0         0         0         0         0
         0         0         0         0         0         0         0         0
         0         0         0         0         0         0         0         0
         0         0         0         0         0         0         0         0
         0         0         0         0         0         0         0         0
         0         0         0         0         0         0         0         0
         0         0         0         0         0         0         0         0
         0         0         0         0         0         0         0         0
         0         0         0         0         0         0         0         0
         0         0         0         0         0         0         0         0
         0         0         0         0         0         0         0         0
         0         0         0         0         0         0         0         0
         0         0         0         0         0         0         0         0
         0         0         0         0         0         0         0         0
         0         0         0         0         0         0         0         0
         0         0         0         0         0         0         0         0
         0         0         0         0         0         0         0         0
         0         0         0         0         0         0         0         0
         0         0         0         0         0         0         0         0
         0         0         0         0         0         0         0         0
         0         0         0         0         0         0         0         0
         0         0         0         0         0         0         0         0
         0         0         0         0         0         0         0         0
         0         0         0         0         0         0         0         0
         0         0         0         0         0         0         0         0
         0         0         0         0         0         0         0         0
         0         0         0         0         0         0         0         0
         0         0         0         0         0         0         0         0
         0         0         0         0         0         0         0         0
         0         0         0         0         0         0         0         0
         0         0         0         0         0         0         0         0
         0         0         0         0         0         0         0         0
         0         0         0         0         0         0         0         0
         0         0         0         0         0         0         0         0
         0         0         0         0         0         0         0         0
         0         0         0         0         0         0         0         0
         0         0         0         0         0         0         0         0
         0         0         0         0         0         0         0         0
         0         0         0         0         0         0         0         0
         0         0         0         0         0         0         0         0
         0         0         0         0         0         0         0         0
         0         0         0         0         0         0         0         0
         0         0         0         0         0         0         0         0
         0         0         0         0         0         0         0         0
         0         0         0         0         0         0         0         0
         0         0         0         0         0         0         0         0
         0         0         0         0         0         0         0         0
         0         0         0         0         0         0         0         0
         0         0         0         0         0         0         0         0
         0         0         0         0         0         0         0         0
         0         0         0         0         0         0         0         0
         0         0         0         0         0         0         0         0
         0         0         0         0         0         0         0         0
         0         0         0         0         0         0         0         0
         0         0         0         0         0         0         0         0
         0         0         0         0         0         0         0         0
         0         0         0         0         0         0         0         0
         0         0         0         0         0         0         0         0
         0         0         0         0         0         0         0         0
         0         0         0         0         0         0         0         0
         0         0         0         0         0         0         0         0
         0         0         0         0         0         0         0         0
         0         0         0         0         0         0         0         0
         0         0         0         0         0         0         0         0
         0         0         0         0         0         0         0         0
         0         0         0         0         0         0         0         0
         0         0         0         0         0         0         0         0
         0         0         0         0         0         0         0         0
         0         0         0         0         0         0         0         0
         0         0         0         0         0         0         0         0
         0         0         0         0         0         0         0         0
         0         0         0         0         0         0         0         0
         0         0         0         0         0         0         0         0
         0         0         0         0         0         0         0         0
         0         0         0         0         0         0         0         0
         0         0         0         0         0         0         0         0
         0         0         0         0         0         0         0         0
         0         0         0         0         0         0         0         0
         0         0         0         0         0         0         0         0
         0         0         0         0         0         0         0         0
         0         0         0         0         0         0         0         0
         0         0         0         0         0         0         0         0
         0         0         0         0         0         0         0         0
         0         0         0         0         0         0         0         0
         0         0         0         0         0         0         0         0
         0         0         0         0         0         0         0         0
         0         0         0         0         0         0         0         0
         0         0         0         0         0         0         0         0
         0         0         0         0         0         0         0         0
         0         0         0         0         0         0         0         0
         0         0         0         0         0         0         0         0
         0         0         0         0         0         0         0         0
         0         0         0         0         0         0         0         0
         0         0         0         0         0         0         0         0
         0         0         0         0         0         0         0         0
         0         0         0         0         0         0         0         0
         0         0         0         0         0         0         0         0
         0         0         0         0         0         0         0         0
         0         0         0         0         0         0         0         0
         0         0         0         0         0         0         0         0
         0         0         0         0         0         0         0         0
         0         0         0         0         0         0         0         0
         0         0         0         0         0         0         0         0
         0         0         0         0         0         0         0         0
         0         0         0         0         0         0         0         0
         0         0         0         0         0         0         0         0
         0         0         0         0         0         0         0         0
         0         0         0         0         0         0         0         0
         0         0         0         0         0         0         0         0
         0         0         0         0         0         0         0         0
         0         0         0         0         0         0         0         0
         0         0         0         0         0         0         0         0
         0         0         0         0         0         0         0         0
         0         0         0         0         0         0         0         0
         0         0         0         0         0         0         0         0
         0         0         0         0         0         0         0         0
         0         0         0         0         0         0         0         0
         0         0         0         0         0         0         0         0
         0         0         0         0         0         0         0         0
         0         0         0         0         0         0         0         0
         0         0         0         0         0         0         0         0
         0         0         0         0         0         0         0         0
         0         0         0         0         0         0         0         0
         0         0         0         0         0         0         0         0
         0         0         0         0         0         0         0         0
         0         0         0         0         0         0         0         0
         0         0         0         0         0         0         0         0
         0         0         0         0         0         0         0         0
         0         0         0         0         0         0         0         0
         0         0         0         0         0         0         0         0
         0         0         0         0         0         0         0         0
         0         0         0         0         0         0         0         0
         0         0         0         0         0         0         0         0
         0         0         0         0         0         0         0         0
         0         0         0         0         0         0         0         0
         0         0         0         0         0         0         0         0
         0         0         0         0         0         0         0         0
         0         0         0         0         0         0         0         0
         0         0         0         0         0         0         0         0
         0         0         0         0         0         0         0         0
         0         0         0         0         0         0         0         0
         0         0         0         0         0         0         0         0
         0         0         0         0         0         0         0         0
         0         0         0         0         0         0         0         0
         0         0         0         0         0         0         0         0
         0         0         0         0         0         0         0         0
         0         0         0         0         0         0         0         0
         0         0         0         0         0         0         0         0
         0         0         0         0         0         0         0         0
         0         0         0         0         0         0         0         0
         0         0         0         0         0         0         0         0
         0         0         0         0         0         0         0         0
         0         0         0         0         0         0         0         0
         0         0         0         0         0         0         0         0
         0         0         0         0         0         0         0         0
         0         0         0         0         0         0         0         0
         0         0         0         0         0         0         0         0
         0         0         0         0         0         0         0         0
         0         0         0         0         0         0         0         0
         0         0         0         0         0         0         0         0
         0         0         0         0         0         0         0         0
         0         0         0         0         0         0         0         0
         0         0         0         0         0         0         0         0
         0         0         0         0         0         0         0         0
         0         0         0         0         0         0         0         0
         0         0         0         0         0         0         0         0
         0         0         0         0         0         0         0         0
         0         0         0         0         0         0         0         0
         0         0         0         0         0         0         0         0
         0         0         0         0         0         0         0         0
         0         0         0         0         0         0         0         0
         0         0         0         0         0         0         0         0
         0         0         0         0         0         0         0         0
         0         0         0         0         0         0         0         0
         0         0         0         0         0         0         0         0
         0         0         0         0         0         0         0         0
         0         0         0         0         0         0         0         0
         0         0         0         0         0         0         0         0
         0         0         0         0         0         0         0         0
         0         0         0         0         0         0         0         0
         0         0         0         0         0         0         0         0
         0         0         0         0         0         0         0         0
         0         0         0         0         0         0         0         0
         0         0         0         0         0         0         0         0
         0         0         0         0         0         0         0         0
         0         0         0         0         0         0         0         0
         0         0         0         0         0         0         0         0
         0         0         0         0         0         0         0         0
         0         0         0         0         0         0         0         0
         0         0         0         0         0         0         0         0
         0         0         0         0         0         0         0         0
         0         0         0         0         0         0         0         0
         0         0         0         0         0         0         0         0
         0         0         0         0         0         0         0         0
         0         0         0         0         0         0         0         0
         0         0         0         0         0         0         0         0
         0         0         0         0         0         0         0         0
         0         0         0         0         0         0         0         0
         0         0         0         0         0         0         0         0
         0         0         0         0         0         0         0         0
         0         0         0         0         0         0         0         0
         0         0         0         0         0         0         0         0
         0         0         0         0         0         0         0         0
         0         0         0         0         0         0         0         0
         0         0         0         0         0         0         0         0
         0         0         0         0         0         0         0         0
         0         0         0         0         0         0         0         0
         0         0         0         0         0         0         0         0
         0         0         0         0         0         0         0         0
         0         0         0         0         0         0         0         0
         0         0         0         0         0         0         0         0
         0         0         0         0         0         0         0         0
         0         0         0         0         0         0         0         0
         0         0         0         0         0         0         0         0
         0         0         0         0         0         0         0         0
         0         0         0         0         0         0         0         0
         0         0         0         0         0         0         0         0
         0         0         0         0         0         0         0         0
         0         0         0         0         0         0         0         0
         0         0         0         0         0         0         0         0
         0         0         0         0         0         0         0         0
         0         0         0         0         0         0         0         0
         0         0         0         0         0         0         0         0
         0         0         0         0         0         0         0         0
         0         0         0         0         0         0         0         0
         0         0         0         0         0         0         0         0
         0         0         0         0         0         0         0         0
         0         0         0         0         0         0         0         0
         0         0         0         0         0         0         0         0
         0         0         0         0         0         0         0         0
         0         0         0         0         0         0         0         0
         0         0         0         0         0         0         0         0
         0         0         0         0         0         0         0         0
         0         0         0         0         0         0         0         0
         0         0         0         0         0         0         0         0
         0         0         0         0         0         0         0         0
         0         0         0         0         0         0         0         0
         0         0         0         0         0         0         0         0
         0         0         0         0         0         0         0         0
         0         0         0         0         0         0         0         0
         0         0         0         0         0         0         0         0
         0         0         0         0         0         0         0         0
         0         0         0         0         0         0         0         0
         0         0         0         0         0         0         0         0
         0         0         0         0         0         0         0         0
         0         0         0         0         0         0         0         0
         0         0         0         0         0         0         0         0
         0         0         0         0         0         0         0         0
         0         0         0         0         0         0         0         0
         0         0         0         0         0         0         0         0
         0         0         0         0         0         0         0         0
         0         0         0         0         0         0         0         0
         0         0         0         0         0         0         0         0
         0         0         0         0         0         0         0         0
         0         0         0         0         0         0         0         0
         0         0         0         0         0         0         0         0
         0         0         0         0         0         0         0         0
         0         0         0         0         0         0         0         0
         0         0         0         0         0         0         0         0
         0         0         0         0         0         0         0         0
         0         0         0         0         0         0         0         0
         0         0         0         0         0         0         0         0
         0         0         0         0         0         0         0         0
         0         0         0         0         0         0         0         0
         0         0         0         0         0         0         0         0
         0         0         0         0         0         0         0         0
         0         0         0         0         0         0         0         0
         0         0         0         0         0         0         0         0
         0         0         0         0         0         0         0         0
         0         0         0         0         0         0         0         0
         0         0         0         0         0         0         0         0
         0         0         0         0         0         0         0         0
         0         0         0         0         0         0         0         0
         0         0         0         0         0         0         0         0
         0         0         0         0         0         0         0         0
         0         0         0         0         0         0         0         0
         0         0         0         0         0         0         0         0
         0         0         0         0         0         0         0         0
         0         0         0         0         0         0         0         0
         0         0         0         0         0         0         0         0
         0         0         0         0         0         0         0         0
         0         0         0         0         0         0         0         0
         0         0         0         0         0         0         0         0
         0         0         0         0         0         0         0         0
         0         0         0         0         0         0         0         0
         0         0         0         0         0         0         0         0
         0         0         0         0         0         0         0         0
         0         0         0         0         0         0         0         0
         0         0         0         0         0         0         0         0
         0         0         0         0         0         0         0         0
         0         0         0         0         0         0         0         0
         0         0         0         0         0         0         0         0
         0         0         0         0         0         0         0         0
         0         0         0         0         0         0         0         0
         0         0         0         0         0         0         0         0
         0         0         0         0         0         0         0         0
         0         0         0         0         0         0         0         0
         0         0         0         0         0         0         0         0
         0         0         0         0         0         0         0         0
         0         0         0         0         0         0         0         0
         0         0         0         0         0         0         0         0
         0         0         0         0         0         0         0         0
         0         0         0         0         0         0         0         0
         0         0         0         0         0         0         0         0
         0         0         0         0         0         0         0         0
         0         0         0         0         0         0         0         0
         0         0         0         0         0         0         0         0
         0         0         0         0         0         0         0         0
         0         0         0         0         0         0         0         0
         0         0         0         0         0         0         0         0
         0         0         0         0         0         0         0         0
         0         0         0         0         0         0         0         0
         0         0         0         0         0         0         0         0
         0         0         0         0         0         0         0         0
         0         0         0         0         0         0         0         0
         0         0         0         0         0         0         0         0
         0         0         0         0         0         0         0         0
         0         0         0         0         0         0         0         0
         0         0         0         0         0         0         0         0
         0         0         0         0         0         0         0         0
         0         0         0         0         0         0         0         0
         0         0         0         0         0         0         0         0
         0         0         0         0         0         0         0         0
         0         0         0         0         0         0         0         0
         0         0         0         0         0         0         0         0
         0         0         0         0         0         0         0         0
         0         0         0         0         0         0         0         0
         0         0         0         0         0         0         0         0
         0         0         0         0         0         0         0         0
         0         0         0         0         0         0         0         0
         0         0         0         0         0         0         0         0
         0         0         0         0         0         0         0         0
         0         0         0         0         0         0         0         0
         0         0         0         0         0         0         0         0
         0         0         0         0         0         0         0         0
         0         0         0         0         0         0         0         0
         0         0         0         0         0         0         0         0
         0         0         0         0         0         0         0         0
         0         0         0         0         0         0         0         0
         0         0         0         0         0         0         0         0
         0         0         0         0         0         0         0         0
         0         0         0         0         0         0         0         0
         0         0         0         0         0         0         0         0
         0         0         0         0         0         0         0         0
         0         0         0         0         0         0         0         0
         0         0         0         0         0         0         0         0
         0         0         0         0         0         0         0         0
         0         0         0         0         0         0         0         0
         0         0         0         0         0         0         0         0
         0         0         0         0         0         0         0         0
         0         0         0         0         0         0         0         0
         0         0         0         0         0         0         0         0
         0         0         0         0         0         0         0         0
         0         0         0         0         0         0         0         0
         0         0         0         0         0         0         0         0
         0         0         0         0         0         0         0         0
         0         0         0         0         0         0         0         0
         0         0         0         0         0         0         0         0
         0         0         0         0         0         0         0         0
         0         0         0         0         0         0         0         0
         0         0         0         0         0         0         0         0
         0         0         0         0         0         0         0         0
         0         0         0         0         0         0         0         0
         0         0         0         0         0         0         0         0
         0         0         0         0         0         0         0         0
         0         0         0         0         0         0         0         0
         0         0         0         0         0         0         0         0
         0         0         0         0         0         0         0         0
         0         0         0         0         0         0         0         0
         0         0         0         0         0         0         0         0
         0         0         0         0         0         0         0         0
         0         0         0         0         0         0         0         0
         0         0         0         0         0         0         0         0
         0         0         0         0         0         0         0         0
         0         0         0         0         0         0         0         0
         0         0         0         0         0         0         0         0
         0         0         0         0         0         0         0         0
         0         0         0         0         0         0         0         0
         0         0         0         0         0         0         0         0
         0         0         0         0         0         0         0         0
         0         0         0         0         0         0         0         0
         0         0         0         0         0         0         0         0
         0         0         0         0         0         0         0         0
         0         0         0         0         0         0         0         0
         0         0         0         0         0         0         0         0
         0         0         0         0         0         0         0         0
         0         0         0         0         0         0         0         0
         0         0         0         0         0         0         0         0
         0         0         0         0         0         0         0         0
         0         0         0         0         0         0         0         0
         0         0         0         0         0         0         0         0
         0         0         0         0         0         0         0         0
         0         0         0         0         0         0         0         0
         0         0         0         0         0         0         0         0
         0         0         0         0         0         0         0         0
         0         0         0         0         0         0         0         0
         0         0         0         0         0         0         0         0
         0         0         0         0         0         0         0         0
         0         0         0         0         0         0         0         0
         0         0         0         0         0         0         0         0
         0         0         0         0         0         0         0         0
         0         0         0         0         0         0         0         0
         0         0         0         0         0         0         0         0
         0         0         0         0         0         0         0         0
         0         0         0         0         0         0         0         0
         0         0         0         0         0         0         0         0
         0         0         0         0         0         0         0         0
         0         0         0         0         0         0         0         0
         0         0         0         0         0         0         0         0
         0         0         0         0         0         0         0         0
         0         0         0         0         0         0         0         0
         0         0         0         0         0         0         0         0
         0         0         0         0         0         0         0         0
         0         0         0         0         0         0         0         0
         0         0         0         0         0         0         0         0
         0         0         0         0         0         0         0         0
         0         0         0         0         0         0         0         0
         0         0         0         0         0         0         0         0
         0         0         0         0         0         0         0         0
         0         0         0         0         0         0         0         0
         0         0         0         0         0         0         0         0
         0         0         0         0         0         0         0         0
         0         0         0         0         0         0         0         0
         0         0         0         0         0         0         0         0
         0         0         0         0         0         0         0         0
         0         0         0         0         0         0         0         0
         0         0         0         0         0         0         0         0
         0         0         0         0         0         0         0         0
         0         0         0         0         0         0         0         0
         0         0         0         0         0         0         0         0
         0         0         0         0         0         0         0         0
         0         0         0         0         0         0         0         0
         0         0         0         0         0         0         0         0
         0         0         0         0         0         0         0         0
         0         0         0         0         0         0         0         0
         0         0         0         0         0         0         0         0
         0         0         0         0         0         0         0         0
         0         0         0         0         0         0         0         0
         0         0         0         0         0         0         0         0
         0         0         0         0         0         0         0         0
         0         0         0         0         0         0         0         0
         0         0         0         0         0         0         0         0
         0         0         0         0         0         0         0         0
         0         0         0         0         0         0         0         0
         0         0         0         0         0         0         0         0
         0         0         0         0         0         0         0         0
         0         0         0         0         0         0         0         0
         0         0         0         0         0         0         0         0
         0         0         0         0         0         0         0         0
         0         0         0         0         0         0         0         0
         0         0         0         0         0         0         0         0
         0         0         0         0         0         0         0         0
         0         0         0         0         0         0         0         0
         0         0         0         0         0         0         0         0
         0         0         0         0         0         0         0         0
         0         0         0         0         0         0         0         0
         0         0         0         0         0         0         0         0
         0         0         0         0         0         0         0         0
         0         0         0         0         0         0         0         0
         0         0         0         0         0         0         0         0
         0         0         0         0         0         0         0         0
         0         0         0         0         0         0         0         0
         0         0         0         0         0         0         0         0
         0         0         0         0         0         0         0         0
         0         0         0         0         0         0         0         0
         0         0         0         0         0         0         0         0
         0         0         0         0         0         0         0         0
         0         0         0         0         0         0         0         0
         0         0         0         0         0         0         0         0
         0         0         0         0         0         0         0         0
         0         0         0         0         0         0         0         0
         0         0         0         0         0         0         0         0
         0         0         0         0         0         0         0         0
         0         0         0         0         0         0         0         0
         0         0         0         0         0         0         0         0
         0         0         0         0         0         0         0         0
         0         0         0         0         0         0         0         0
         0         0         0         0         0         0         0         0
         0         0         0         0         0         0         0         0
         0         0         0         0         0         0         0         0
         0         0         0         0         0         0         0         0
         0         0         0         0         0         0         0         0
         0         0         0         0         0         0         0         0
         0         0         0         0         0         0         0         0
         0         0         0         0         0         0         0         0
         0         0         0         0         0         0         0         0
         0         0         0         0         0         0         0         0
         0         0         0         0         0         0         0         0
         0         0         0         0         0         0         0         0
         0         0         0         0         0         0         0         0
         0         0         0         0         0         0         0         0
         0         0         0         0         0         0         0         0
         0         0         0         0         0         0         0         0
         0         0         0         0         0         0         0         0
         0         0         0         0         0         0         0         0
         0         0         0         0         0         0         0         0
         0         0         0         0         0         0         0         0
         0         0         0         0         0         0         0         0
         0         0         0         0         0         0         0         0
         0         0         0         0         0         0         0         0
         0         0         0         0         0         0         0         0
         0         0         0         0         0         0         0         0
         0         0         0         0         0         0         0         0
         0         0         0         0         0         0         0         0
         0         0         0         0         0         0         0         0
         0         0         0         0         0         0         0         0
         0         0         0         0         0         0         0         0
         0         0         0         0         0         0         0         0
         0         0         0         0         0         0         0         0
         0         0         0         0         0         0         0         0
         0         0         0         0         0         0         0         0
         0         0         0         0         0         0         0         0
         0         0         0         0         0         0         0         0
         0         0         0         0         0         0         0         0
         0         0         0         0         0         0         0         0
         0         0         0         0         0         0         0         0
         0         0         0         0         0         0         0         0
         0         0         0         0         0         0         0         0
         0         0         0         0         0         0         0         0
         0         0         0         0         0         0         0         0
         0         0         0         0         0         0         0         0
         0         0         0         0         0         0         0         0
         0         0         0         0         0         0         0         0
         0         0         0         0         0         0         0         0
         0         0         0         0         0         0         0         0
         0         0         0         0         0         0         0         0
         0         0         0         0         0         0         0         0
         0         0         0         0         0         0         0         0
         0         0         0         0         0         0         0         0
         0         0         0         0         0         0         0         0
         0         0         0         0         0         0         0         0
         0         0         0         0         0         0         0         0
         0         0         0         0         0         0         0         0
         0         0         0         0         0         0         0         0
         0         0         0         0         0         0         0         0
         0         0         0         0         0         0         0         0
         0         0         0         0         0         0         0         0
         0         0         0         0         0         0         0         0
         0         0         0         0         0         0         0         0
         0         0         0         0         0         0         0         0
         0         0         0         0         0         0         0         0
         0         0         0         0         0         0         0         0
         0         0         0         0         0         0         0         0
         0         0         0         0         0         0         0         0
         0         0         0         0         0         0         0         0
         0         0         0         0         0         0         0         0
         0         0         0         0         0         0         0         0
         0         0         0         0         0         0         0         0
         0         0         0         0         0         0         0         0
         0         0         0         0         0         0         0         0
         0         0         0         0         0         0         0         0
         0         0         0         0         0         0         0         0
         0         0         0         0         0         0         0         0
         0         0         0         0         0         0         0         0
         0         0         0         0         0         0         0         0
         0         0         0         0         0         0         0         0
         0         0         0         0         0         0         0         0
         0         0         0         0         0         0         0         0
         0         0         0         0         0         0         0         0
         0         0         0         0         0         0         0         0
         0         0         0         0         0         0         0         0
         0         0         0         0         0         0         0         0
         0         0         0         0         0         0         0         0
         0         0         0         0         0         0         0         0
         0         0         0         0         0         0         0         0
         0         0         0         0         0         0         0         0
         0         0         0         0         0         0         0         0
         0         0         0         0         0         0         0         0
         0         0         0         0         0         0         0         0
         0         0         0         0         0         0         0         0
         0         0         0         0         0         0         0         0
         0         0         0         0         0         0         0         0
         0         0         0         0         0         0         0         0
         0         0         0         0         0         0         0         0
         0         0         0         0         0         0         0         0
         0         0         0         0         0         0         0         0
         0         0         0         0         0         0         0         0
         0         0         0         0         0         0         0         0
         0         0         0         0         0         0         0         0
         0         0         0         0         0         0         0         0
         0         0         0         0         0         0         0         0
         0         0         0         0         0         0         0         0
         0         0         0         0         0         0         0         0
         0         0         0         0         0         0         0         0
         0         0         0         0         0         0         0         0
         0         0         0         0         0         0         0         0
         0         0         0         0         0         0         0         0
         0         0         0         0         0         0         0         0
         0         0         0         0         0         0         0         0
         0         0         0         0         0         0         0         0
         0         0         0         0         0         0         0         0
         0         0         0         0         0         0         0         0
         0         0         0         0         0         0         0         0
         0         0         0         0         0         0         0         0
         0         0         0         0         0         0         0         0
         0         0         0         0         0         0         0         0
         0         0         0         0         0         0         0         0
         0         0         0         0         0         0         0         0
         0         0         0         0         0         0         0         0
         0         0         0         0         0         0         0         0
         0         0         0         0         0         0         0         0
         0         0         0         0         0         0         0         0
         0         0         0         0         0         0         0         0
         0         0         0         0         0         0         0         0
         0         0         0         0         0         0         0         0
         0         0         0         0         0         0         0         0
         0         0         0         0         0         0         0         0
         0         0         0         0         0         0         0         0
         0         0         0         0         0         0         0         0
         0         0         0         0         0         0         0         0
         0         0         0         0         0         0         0         0
         0         0         0         0         0         0         0         0
         0         0         0         0         0         0         0         0
         0         0         0         0         0         0         0         0
         0         0         0         0         0         0         0         0
         0         0         0         0         0         0         0         0
         0         0         0         0         0         0         0         0
         0         0         0         0         0         0         0         0
         0         0         0         0         0         0         0         0
         0         0         0         0         0         0         0         0
         0         0         0         0         0         0         0         0
         0         0         0         0         0         0         0         0
         0         0         0         0         0         0         0         0
         0         0         0         0         0         0         0         0
         0         0         0         0         0         0         0         0
         0         0         0         0         0         0         0         0
         0         0         0         0         0         0         0         0
         0         0         0         0         0         0         0         0
         0         0         0         0         0         0         0         0
         0         0         0         0         0         0         0         0
         0         0         0         0         0         0         0         0
         0         0         0         0         0         0         0         0
         0         0         0         0         0         0         0         0
         0         0         0         0         0         0         0         0
         0         0         0         0         0         0         0         0
         0         0         0         0         0

         0         0 !NGRP NST2


         0         0 !NUMLP NUMLPH

         4 !NCRTERM: cross-terms
        23        25        27        30        25        27        30        32
        30        32        42        44        32        42        44        46
        44        46        56        58        46        56        58        60
        58        60        62        82        60        62        82        84

