Generated by CHARMM-GUI FF-Converter
29469
    1NLYS     N    1   2.060   2.888   1.973
    1NLYS    H1    2   2.066   2.938   2.061
    1NLYS    H2    3   2.026   2.795   1.991
    1NLYS    H3    4   2.013   2.947   1.906
    1NLYS    CA    5   2.198   2.870   1.920
    1NLYS    HA    6   2.219   2.763   1.910
    1NLYS    CB    7   2.214   2.937   1.782
    1NLYS   HB2    8   2.126   2.918   1.722
    1NLYS   HB3    9   2.227   3.044   1.795
    1NLYS    CG   10   2.336   2.884   1.704
    1NLYS   HG2   11   2.427   2.910   1.757
    1NLYS   HG3   12   2.329   2.776   1.695
    1NLYS    CD   13   2.343   2.945   1.563
    1NLYS   HD2   14   2.244   2.943   1.517
    1NLYS   HD3   15   2.378   3.048   1.569
    1NLYS    CE   16   2.439   2.869   1.471
    1NLYS   HE2   17   2.538   2.867   1.516
    1NLYS   HE3   18   2.403   2.766   1.458
    1NLYS    NZ   19   2.446   2.936   1.339
    1NLYS   HZ1   20   2.479   3.030   1.351
    1NLYS   HZ2   21   2.509   2.885   1.279
    1NLYS   HZ3   22   2.354   2.938   1.298
    1NLYS     C   23   2.286   2.939   2.017
    1NLYS     O   24   2.248   3.044   2.070
    2GLY      N   25   2.404   2.880   2.043
    2GLY      H   26   2.433   2.800   1.989
    2GLY     CA   27   2.487   2.932   2.148
    2GLY    HA2   28   2.470   3.039   2.159
    2GLY    HA3   29   2.462   2.882   2.242
    2GLY      C   30   2.633   2.910   2.122
    2GLY      O   31   2.670   2.806   2.068
    3PRO      N   32   2.717   3.006   2.159
    3PRO     CD   33   2.680   3.149   2.159
    3PRO    HD2   34   2.646   3.177   2.259
    3PRO    HD3   35   2.600   3.165   2.087
    3PRO     CG   36   2.805   3.222   2.120
    3PRO    HG2   37   2.849   3.269   2.208
    3PRO    HG3   38   2.781   3.299   2.046
    3PRO     CB   39   2.891   3.109   2.063
    3PRO    HB2   40   2.996   3.139   2.066
    3PRO    HB3   41   2.861   3.090   1.960
    3PRO     CA   42   2.862   2.991   2.155
    3PRO     HA   43   2.887   2.902   2.098
    3PRO      C   44   2.930   3.011   2.292
    3PRO      O   45   3.033   3.081   2.294
    4PRO      N   46   2.883   2.955   2.404
    4PRO     CD   47   2.745   2.978   2.451
    4PRO    HD2   48   2.689   2.885   2.449
    4PRO    HD3   49   2.696   3.051   2.385
    4PRO     CG   50   2.754   3.033   2.594
    4PRO    HG2   51   2.714   2.960   2.664
    4PRO    HG3   52   2.697   3.126   2.601
    4PRO     CB   53   2.904   3.056   2.612
    4PRO    HB2   54   2.930   3.044   2.717
    4PRO    HB3   55   2.929   3.158   2.580
    4PRO     CA   56   2.962   2.948   2.522
    4PRO     HA   57   3.062   2.985   2.500
    4PRO      C   58   2.941   2.812   2.571
    4PRO      O   59   2.873   2.732   2.508
    5ARG      N   60   3.002   2.778   2.682
    5ARG      H   61   3.058   2.845   2.732
    5ARG     CA   62   2.988   2.643   2.725
    5ARG     HA   63   3.015   2.576   2.644
    5ARG     CB   64   3.077   2.620   2.842
    5ARG    HB2   65   3.076   2.515   2.868
    5ARG    HB3   66   3.178   2.651   2.816
    5ARG     CG   67   3.024   2.703   2.957
    5ARG    HG2   68   2.917   2.720   2.944
    5ARG    HG3   69   3.042   2.651   3.051
    5ARG     CD   70   3.073   2.841   2.987
    5ARG    HD2   71   3.035   2.911   2.913
    5ARG    HD3   72   3.039   2.871   3.086
    5ARG     NE   73   3.222   2.821   2.979
    5ARG     HE   74   3.264   2.806   2.889
    5ARG     CZ   75   3.297   2.823   3.085
    5ARG    NH1   76   3.241   2.862   3.195
    5ARG   HH11   77   3.144   2.889   3.196
    5ARG   HH12   78   3.295   2.866   3.281
    5ARG    NH2   79   3.425   2.802   3.073
    5ARG   HH21   80   3.465   2.784   2.982
    5ARG   HH22   81   3.483   2.803   3.156
    5ARG      C   82   2.843   2.608   2.759
    5ARG      O   83   2.756   2.695   2.767
    6CARG     N   84   2.824   2.477   2.770
    6CARG     H   85   2.902   2.414   2.764
    6CARG    CA   86   2.698   2.411   2.792
    6CARG    HA   87   2.634   2.425   2.704
    6CARG    CB   88   2.714   2.258   2.816
    6CARG   HB2   89   2.618   2.208   2.802
    6CARG   HB3   90   2.787   2.217   2.745
    6CARG    CG   91   2.763   2.221   2.955
    6CARG   HG2   92   2.692   2.257   3.029
    6CARG   HG3   93   2.772   2.113   2.962
    6CARG    CD   94   2.894   2.286   2.972
    6CARG   HD2   95   2.956   2.267   2.885
    6CARG   HD3   96   2.880   2.393   2.984
    6CARG    NE   97   2.945   2.222   3.092
    6CARG    HE   98   2.918   2.260   3.182
    6CARG    CZ   99   3.025   2.119   3.091
    6CARG   NH1  100   3.074   2.063   2.987
    6CARG  HH11  101   3.052   2.099   2.895
    6CARG  HH12  102   3.135   1.983   2.997
    6CARG   NH2  103   3.075   2.076   3.201
    6CARG  HH21  104   3.053   2.122   3.288
    6CARG  HH22  105   3.137   1.996   3.200
    6CARG     C  106   2.607   2.472   2.902
    6CARG     O  107   2.651   2.561   2.980
    6CARG   OXT  108   2.492   2.420   2.911
    7PA    C116  109   3.015   2.601   5.194
    7PA    H16R  110   3.001   2.550   5.100
    7PA    H16S  111   3.124   2.613   5.201
    7PA    H16T  112   2.965   2.701   5.188
    7PA    C115  113   2.950   2.513   5.299
    7PA    H15R  114   2.838   2.513   5.291
    7PA    H15S  115   2.983   2.407   5.284
    7PA    C114  116   2.988   2.570   5.432
    7PA    H14R  117   3.099   2.557   5.441
    7PA    H14S  118   2.965   2.679   5.428
    7PA    C113  119   2.919   2.509   5.552
    7PA    H13R  120   2.809   2.505   5.536
    7PA    H13S  121   2.956   2.405   5.563
    7PA    C112  122   2.950   2.594   5.677
    7PA    H12R  123   3.060   2.607   5.683
    7PA    H12S  124   2.906   2.696   5.662
    7PA    C111  125   2.895   2.534   5.807
    7PA    H11R  126   2.904   2.606   5.890
    7PA    H11S  127   2.789   2.503   5.793
    7PA    C110  128   2.971   2.411   5.845
    7PA    H10R  129   2.955   2.343   5.759
    7PA    H10S  130   3.078   2.443   5.852
    7PA     C19  131   2.930   2.332   5.968
    7PA     H9R  132   2.829   2.290   5.957
    7PA     H9S  133   2.993   2.240   5.968
    7PA     C18  134   2.945   2.415   6.097
    7PA     H8R  135   3.036   2.476   6.097
    7PA     H8S  136   2.869   2.495   6.097
    7PA     C17  137   2.933   2.331   6.224
    7PA     H7R  138   2.831   2.286   6.220
    7PA     H7S  139   3.006   2.247   6.228
    7PA     C16  140   2.939   2.414   6.352
    7PA     H6R  141   2.866   2.497   6.345
    7PA     H6S  142   2.913   2.349   6.439
    7PA     C15  143   3.074   2.476   6.381
    7PA     H5R  144   3.156   2.400   6.377
    7PA     H5S  145   3.099   2.555   6.306
    7PA     C14  146   3.077   2.539   6.519
    7PA     H4R  147   3.076   2.464   6.601
    7PA     H4S  148   3.176   2.582   6.503
    7PA     C13  149   2.984   2.657   6.550
    7PA     H3R  150   2.983   2.723   6.460
    7PA     H3S  151   2.882   2.617   6.566
    7PA     C12  152   3.027   2.742   6.673
    7PA     H2R  153   3.046   2.679   6.762
    7PA     H2S  154   3.119   2.801   6.653
    8PC     C11  155   2.916   2.841   6.710
    8PC     O12  156   2.842   2.894   6.630
    8PC     O11  157   2.903   2.841   6.843
    8PC      C1  158   2.778   2.891   6.892
    8PC      HR  159   2.797   2.938   6.991
    8PC      HS  160   2.737   2.972   6.828
    8PC      C2  161   2.671   2.779   6.916
    8PC      HX  162   2.573   2.818   6.946
    8PC      C3  163   2.700   2.690   7.037
    8PC      HA  164   2.795   2.637   7.020
    8PC      HB  165   2.709   2.757   7.127
    8PC     O31  166   2.587   2.603   7.053
    8PC     P31  167   2.593   2.499   7.173
    8PC     O32  168   2.729   2.426   7.136
    8PC     C31  169   2.724   2.311   7.053
    8PC     H1A  170   2.677   2.228   7.110
    8PC     H1B  171   2.664   2.326   6.960
    8PC     C32  172   2.868   2.269   7.015
    8PC     H2A  173   2.911   2.225   7.104
    8PC     H2B  174   2.859   2.191   6.941
    8PC     N31  175   2.964   2.374   6.960
    8PC     C33  176   3.010   2.469   7.065
    8PC     H3A  177   2.926   2.533   7.090
    8PC     H3B  178   3.040   2.416   7.154
    8PC     H3C  179   3.092   2.529   7.029
    8PC     C34  180   3.081   2.307   6.900
    8PC     H4A  181   3.055   2.253   6.810
    8PC     H4B  182   3.160   2.377   6.874
    8PC     H4C  183   3.132   2.237   6.966
    8PC     C35  184   2.899   2.453   6.851
    8PC     H5A  185   2.883   2.390   6.764
    8PC     H5B  186   2.962   2.536   6.823
    8PC     H5C  187   2.803   2.491   6.884
    8PC     O33  188   2.609   2.578   7.297
    8PC     O34  189   2.477   2.406   7.163
    8PC     O21  190   2.658   2.696   6.799
    8PC     C21  191   2.597   2.756   6.699
    8PC     O22  192   2.567   2.873   6.694
    9OL     C12  193   2.578   2.662   6.585
    9OL     H2R  194   2.647   2.577   6.595
    9OL     H2S  195   2.606   2.724   6.498
    9OL     C13  196   2.438   2.602   6.572
    9OL     H3R  197   2.360   2.676   6.567
    9OL     H3S  198   2.402   2.549   6.662
    9OL     C14  199   2.437   2.521   6.440
    9OL     H4R  200   2.331   2.496   6.428
    9OL     H4S  201   2.482   2.422   6.462
    9OL     C15  202   2.506   2.595   6.316
    9OL     H5R  203   2.614   2.574   6.333
    9OL     H5S  204   2.494   2.704   6.322
    9OL     C16  205   2.481   2.556   6.164
    9OL     H6R  206   2.453   2.453   6.190
    9OL     H6S  207   2.573   2.536   6.108
    9OL     C17  208   2.377   2.623   6.056
    9OL     H7R  209   2.275   2.648   6.078
    9OL     H7S  210   2.361   2.546   5.978
    9OL     C18  211   2.375   2.736   5.962
    9OL     H8R  212   2.271   2.765   5.928
    9OL     H8S  213   2.427   2.699   5.874
    9OL     C19  214   2.428   2.828   6.063
    9OL     H9R  215   2.350   2.872   6.127
    9OL    C110  216   2.554   2.844   6.092
    9OL    H10R  217   2.578   2.943   6.130
    9OL    C111  218   2.655   2.761   6.019
    9OL    H11R  219   2.612   2.679   5.955
    9OL    H11S  220   2.710   2.708   6.098
    9OL    C112  221   2.747   2.841   5.932
    9OL    H12R  222   2.843   2.789   5.921
    9OL    H12S  223   2.765   2.940   5.980
    9OL    C113  224   2.692   2.866   5.793
    9OL    H13R  225   2.772   2.917   5.740
    9OL    H13S  226   2.615   2.934   5.830
    9OL    C114  227   2.629   2.755   5.706
    9OL    H14R  228   2.524   2.745   5.731
    9OL    H14S  229   2.677   2.659   5.729
    9OL    C115  230   2.630   2.781   5.554
    9OL    H15R  231   2.734   2.772   5.517
    9OL    H15S  232   2.599   2.887   5.536
    9OL    C116  233   2.535   2.691   5.472
    9OL    H16R  234   2.433   2.687   5.517
    9OL    H16S  235   2.570   2.587   5.471
    9OL    C117  236   2.516   2.739   5.327
    9OL    H17R  237   2.445   2.824   5.319
    9OL    H17S  238   2.473   2.655   5.268
    9OL    C118  239   2.644   2.790   5.265
    9OL    H18R  240   2.712   2.706   5.243
    9OL    H18S  241   2.698   2.855   5.330
    9OL    H18T  242   2.624   2.855   5.179
   10PA    C116  243   3.229   2.945   5.013
   10PA    H16R  244   3.160   2.929   5.095
   10PA    H16S  245   3.291   2.859   5.043
   10PA    H16T  246   3.202   2.882   4.924
   10PA    C115  247   3.306   3.097   4.987
   10PA    H15R  248   3.379   3.108   4.913
   10PA    H15S  249   3.246   3.141   4.908
   10PA    C114  250   3.419   3.196   5.078
   10PA    H14R  251   3.393   3.302   5.056
   10PA    H14S  252   3.402   3.181   5.185
   10PA    C113  253   3.584   3.216   5.068
   10PA    H13R  254   3.654   3.134   5.075
   10PA    H13S  255   3.625   3.227   4.966
   10PA    C112  256   3.663   3.266   5.193
   10PA    H12R  257   3.775   3.262   5.179
   10PA    H12S  258   3.633   3.372   5.195
   10PA    C111  259   3.637   3.198   5.331
   10PA    H11R  260   3.555   3.123   5.330
   10PA    H11S  261   3.726   3.144   5.371
   10PA    C110  262   3.584   3.297   5.433
   10PA    H10R  263   3.481   3.325   5.399
   10PA    H10S  264   3.575   3.248   5.532
   10PA     C19  265   3.670   3.422   5.445
   10PA     H9R  266   3.771   3.395   5.483
   10PA     H9S  267   3.685   3.472   5.347
   10PA     C18  268   3.601   3.523   5.537
   10PA     H8R  269   3.642   3.623   5.512
   10PA     H8S  270   3.492   3.527   5.511
   10PA     C17  271   3.620   3.487   5.685
   10PA     H7R  272   3.566   3.392   5.705
   10PA     H7S  273   3.728   3.468   5.703
   10PA     C16  274   3.570   3.592   5.785
   10PA     H6R  275   3.610   3.692   5.758
   10PA     H6S  276   3.459   3.601   5.778
   10PA     C15  277   3.610   3.563   5.931
   10PA     H5R  278   3.716   3.530   5.937
   10PA     H5S  279   3.601   3.657   5.989
   10PA     C14  280   3.524   3.456   5.998
   10PA     H4R  281   3.418   3.486   5.986
   10PA     H4S  282   3.539   3.358   5.946
   10PA     C13  283   3.557   3.438   6.147
   10PA     H3R  284   3.659   3.395   6.154
   10PA     H3S  285   3.558   3.537   6.198
   10PA     C12  286   3.456   3.344   6.217
   10PA     H2R  287   3.359   3.396   6.231
   10PA     H2S  288   3.439   3.255   6.153
   11PC     C11  289   3.504   3.292   6.352
   11PC     O12  290   3.608   3.323   6.407
   11PC     O11  291   3.415   3.206   6.399
   11PC      C1  292   3.438   3.161   6.534
   11PC      HR  293   3.378   3.069   6.550
   11PC      HS  294   3.545   3.134   6.552
   11PC      C2  295   3.390   3.264   6.640
   11PC      HX  296   3.456   3.354   6.634
   11PC      C3  297   3.400   3.202   6.781
   11PC      HA  298   3.344   3.105   6.778
   11PC      HB  299   3.507   3.181   6.803
   11PC     O31  300   3.347   3.289   6.880
   11PC     P31  301   3.278   3.234   7.011
   11PC     O32  302   3.377   3.115   7.049
   11PC     C31  303   3.323   3.008   7.129
   11PC     H1A  304   3.253   3.044   7.209
   11PC     H1B  305   3.261   2.944   7.063
   11PC     C32  306   3.437   2.933   7.204
   11PC     H2A  307   3.490   3.006   7.264
   11PC     H2B  308   3.390   2.862   7.271
   11PC     N31  309   3.531   2.858   7.114
   11PC     C33  310   3.590   2.952   7.013
   11PC     H3A  311   3.624   3.041   7.064
   11PC     H3B  312   3.666   2.908   6.950
   11PC     H3C  313   3.510   2.991   6.949
   11PC     C34  314   3.638   2.779   7.181
   11PC     H4A  315   3.688   2.716   7.109
   11PC     H4B  316   3.712   2.845   7.223
   11PC     H4C  317   3.596   2.716   7.258
   11PC     C35  318   3.437   2.772   7.046
   11PC     H5A  319   3.403   2.681   7.093
   11PC     H5B  320   3.478   2.741   6.949
   11PC     H5C  321   3.350   2.822   7.002
   11PC     O33  322   3.282   3.340   7.114
   11PC     O34  323   3.145   3.177   6.980
   11PC     O21  324   3.255   3.295   6.610
   11PC     C21  325   3.214   3.419   6.625
   11PC     O22  326   3.274   3.511   6.677
   12OL     C12  327   3.083   3.436   6.552
   12OL     H2R  328   3.094   3.533   6.499
   12OL     H2S  329   2.999   3.441   6.623
   12OL     C13  330   3.058   3.327   6.445
   12OL     H3R  331   3.049   3.228   6.494
   12OL     H3S  332   3.147   3.323   6.379
   12OL     C14  333   2.932   3.355   6.363
   12OL     H4R  334   2.946   3.450   6.306
   12OL     H4S  335   2.847   3.371   6.432
   12OL     C15  336   2.899   3.240   6.267
   12OL     H5R  337   2.807   3.267   6.211
   12OL     H5S  338   2.876   3.150   6.328
   12OL     C16  339   3.011   3.203   6.168
   12OL     H6R  340   2.964   3.146   6.084
   12OL     H6S  341   3.084   3.136   6.218
   12OL     C17  342   3.093   3.319   6.111
   12OL     H7R  343   3.175   3.279   6.048
   12OL     H7S  344   3.136   3.384   6.190
   12OL     C18  345   3.010   3.408   6.024
   12OL     H8R  346   2.922   3.449   6.080
   12OL     H8S  347   2.966   3.340   5.947
   12OL     C19  348   3.096   3.519   5.967
   12OL     H9R  349   3.083   3.614   6.022
   12OL    C110  350   3.162   3.517   5.848
   12OL    H10R  351   3.204   3.611   5.810
   12OL    C111  352   3.160   3.401   5.750
   12OL    H11R  353   3.102   3.429   5.659
   12OL    H11S  354   3.106   3.316   5.795
   12OL    C112  355   3.295   3.348   5.701
   12OL    H12R  356   3.363   3.344   5.789
   12OL    H12S  357   3.335   3.420   5.627
   12OL    C113  358   3.289   3.206   5.640
   12OL    H13R  359   3.395   3.176   5.622
   12OL    H13S  360   3.237   3.208   5.542
   12OL    C114  361   3.223   3.099   5.730
   12OL    H14R  362   3.114   3.093   5.709
   12OL    H14S  363   3.236   3.133   5.836
   12OL    C115  364   3.283   2.958   5.724
   12OL    H15R  365   3.268   2.909   5.823
   12OL    H15S  366   3.394   2.965   5.707
   12OL    C116  367   3.217   2.866   5.622
   12OL    H16R  368   3.107   2.859   5.628
   12OL    H16S  369   3.261   2.763   5.635
   12OL    C117  370   3.252   2.912   5.485
   12OL    H17R  371   3.356   2.879   5.496
   12OL    H17S  372   3.260   3.020   5.465
   12OL    C118  373   3.173   2.846   5.371
   12OL    H18R  374   3.211   2.889   5.276
   12OL    H18S  375   3.065   2.867   5.374
   12OL    H18T  376   3.194   2.737   5.366
   13PA    C116  377   3.649   2.556   5.079
   13PA    H16R  378   3.548   2.521   5.112
   13PA    H16S  379   3.704   2.480   5.019
   13PA    H16T  380   3.632   2.645   5.015
   13PA    C115  381   3.732   2.617   5.179
   13PA    H15R  382   3.779   2.709   5.134
   13PA    H15S  383   3.661   2.638   5.262
   13PA    C114  384   3.827   2.532   5.243
   13PA    H14R  385   3.882   2.475   5.165
   13PA    H14S  386   3.893   2.606   5.294
   13PA    C113  387   3.745   2.448   5.339
   13PA    H13R  388   3.669   2.507   5.395
   13PA    H13S  389   3.690   2.368   5.286
   13PA    C112  390   3.843   2.398   5.439
   13PA    H12R  391   3.930   2.353   5.386
   13PA    H12S  392   3.875   2.491   5.490
   13PA    C111  393   3.773   2.306   5.536
   13PA    H11R  394   3.678   2.354   5.568
   13PA    H11S  395   3.751   2.209   5.486
   13PA    C110  396   3.856   2.284   5.660
   13PA    H10R  397   3.931   2.207   5.633
   13PA    H10S  398   3.904   2.381   5.683
   13PA     C19  399   3.774   2.237   5.779
   13PA     H9R  400   3.691   2.309   5.795
   13PA     H9S  401   3.732   2.137   5.756
   13PA     C18  402   3.854   2.227   5.909
   13PA     H8R  403   3.919   2.140   5.899
   13PA     H8S  404   3.915   2.318   5.926
   13PA     C17  405   3.765   2.202   6.030
   13PA     H7R  406   3.688   2.281   6.034
   13PA     H7S  407   3.713   2.104   6.015
   13PA     C16  408   3.850   2.200   6.158
   13PA     H6R  409   3.936   2.131   6.142
   13PA     H6S  410   3.891   2.302   6.174
   13PA     C15  411   3.777   2.149   6.283
   13PA     H5R  412   3.680   2.202   6.298
   13PA     H5S  413   3.754   2.041   6.268
   13PA     C14  414   3.861   2.162   6.411
   13PA     H4R  415   3.809   2.103   6.491
   13PA     H4S  416   3.961   2.117   6.397
   13PA     C13  417   3.879   2.307   6.461
   13PA     H3R  418   3.987   2.327   6.477
   13PA     H3S  419   3.841   2.379   6.385
   13PA     C12  420   3.802   2.326   6.592
   13PA     H2R  421   3.695   2.298   6.580
   13PA     H2S  422   3.846   2.259   6.670
   14PC     C11  423   3.804   2.466   6.648
   14PC     O12  424   3.835   2.572   6.596
   14PC     O11  425   3.770   2.449   6.775
   14PC      C1  426   3.752   2.566   6.852
   14PC      HR  427   3.816   2.562   6.943
   14PC      HS  428   3.773   2.662   6.798
   14PC      C2  429   3.607   2.582   6.901
   14PC      HX  430   3.622   2.676   6.953
   14PC      C3  431   3.551   2.472   6.994
   14PC      HA  432   3.622   2.451   7.076
   14PC      HB  433   3.456   2.506   7.042
   14PC     O31  434   3.525   2.356   6.915
   14PC     P31  435   3.456   2.229   6.979
   14PC     O32  436   3.558   2.114   6.942
   14PC     C31  437   3.697   2.133   6.927
   14PC     H1A  438   3.738   2.040   6.881
   14PC     H1B  439   3.717   2.216   6.856
   14PC     C32  440   3.769   2.158   7.062
   14PC     H2A  441   3.870   2.186   7.038
   14PC     H2B  442   3.719   2.244   7.107
   14PC     N31  443   3.771   2.046   7.167
   14PC     C33  444   3.843   1.927   7.111
   14PC     H3A  445   3.849   1.843   7.179
   14PC     H3B  446   3.792   1.890   7.023
   14PC     H3C  447   3.946   1.951   7.086
   14PC     C34  448   3.837   2.095   7.293
   14PC     H4A  449   3.775   2.171   7.340
   14PC     H4B  450   3.848   2.017   7.367
   14PC     H4C  451   3.934   2.138   7.271
   14PC     C35  452   3.628   2.014   7.201
   14PC     H5A  453   3.573   1.991   7.109
   14PC     H5B  454   3.574   2.104   7.234
   14PC     H5C  455   3.614   1.936   7.272
   14PC     O33  456   3.462   2.248   7.126
   14PC     O34  457   3.328   2.207   6.910
   14PC     O21  458   3.527   2.600   6.784
   14PC     C21  459   3.397   2.599   6.786
   14PC     O22  460   3.317   2.645   6.865
   15OL     C12  461   3.337   2.545   6.666
   15OL     H2R  462   3.280   2.637   6.638
   15OL     H2S  463   3.270   2.463   6.700
   15OL     C13  464   3.431   2.498   6.557
   15OL     H3R  465   3.370   2.431   6.492
   15OL     H3S  466   3.513   2.437   6.600
   15OL     C14  467   3.482   2.613   6.471
   15OL     H4R  468   3.568   2.663   6.521
   15OL     H4S  469   3.402   2.690   6.458
   15OL     C15  470   3.522   2.561   6.333
   15OL     H5R  471   3.568   2.460   6.346
   15OL     H5S  472   3.598   2.628   6.289
   15OL     C16  473   3.400   2.551   6.241
   15OL     H6R  474   3.337   2.642   6.251
   15OL     H6S  475   3.341   2.466   6.281
   15OL     C17  476   3.434   2.528   6.092
   15OL     H7R  477   3.495   2.434   6.082
   15OL     H7S  478   3.497   2.611   6.055
   15OL     C18  479   3.312   2.514   6.001
   15OL     H8R  480   3.339   2.510   5.893
   15OL     H8S  481   3.242   2.601   6.015
   15OL     C19  482   3.251   2.386   6.051
   15OL     H9R  483   3.210   2.397   6.153
   15OL    C110  484   3.234   2.267   5.993
   15OL    H10R  485   3.173   2.195   6.051
   15OL    C111  486   3.269   2.221   5.854
   15OL    H11R  487   3.291   2.114   5.866
   15OL    H11S  488   3.361   2.275   5.820
   15OL    C112  489   3.167   2.226   5.737
   15OL    H12R  490   3.150   2.332   5.708
   15OL    H12S  491   3.071   2.174   5.764
   15OL    C113  492   3.208   2.175   5.602
   15OL    H13R  493   3.129   2.206   5.528
   15OL    H13S  494   3.209   2.064   5.602
   15OL    C114  495   3.340   2.237   5.558
   15OL    H14R  496   3.423   2.178   5.603
   15OL    H14S  497   3.349   2.343   5.593
   15OL    C115  498   3.348   2.236   5.408
   15OL    H15R  499   3.442   2.283   5.370
   15OL    H15S  500   3.263   2.296   5.366
   15OL    C116  501   3.337   2.091   5.364
   15OL    H16R  502   3.266   2.027   5.418
   15OL    H16S  503   3.439   2.045   5.373
   15OL    C117  504   3.287   2.080   5.225
   15OL    H17R  505   3.343   2.164   5.178
   15OL    H17S  506   3.184   2.112   5.201
   15OL    C118  507   3.313   1.934   5.184
   15OL    H18R  508   3.254   1.905   5.095
   15OL    H18S  509   3.281   1.864   5.259
   15OL    H18T  510   3.421   1.911   5.162
   16PA    C116  511   2.943   1.632   5.214
   16PA    H16R  512   2.966   1.534   5.259
   16PA    H16S  513   2.945   1.614   5.105
   16PA    H16T  514   2.841   1.659   5.244
   16PA    C115  515   3.045   1.739   5.253
   16PA    H15R  516   3.128   1.743   5.187
   16PA    H15S  517   3.014   1.840   5.222
   16PA    C114  518   3.102   1.729   5.394
   16PA    H14R  519   3.119   1.624   5.426
   16PA    H14S  520   3.201   1.778   5.405
   16PA    C113  521   2.999   1.801   5.478
   16PA    H13R  522   2.995   1.905   5.438
   16PA    H13S  523   2.901   1.753   5.457
   16PA    C112  524   3.027   1.805   5.627
   16PA    H12R  525   3.134   1.827   5.645
   16PA    H12S  526   2.966   1.890   5.667
   16PA    C111  527   2.980   1.679   5.701
   16PA    H11R  528   2.874   1.660   5.672
   16PA    H11S  529   3.039   1.591   5.668
   16PA    C110  530   2.979   1.697   5.854
   16PA    H10R  531   3.003   1.802   5.880
   16PA    H10S  532   2.879   1.669   5.893
   16PA     C19  533   3.077   1.610   5.929
   16PA     H9R  534   3.080   1.630   6.038
   16PA     H9S  535   3.050   1.503   5.917
   16PA     C18  536   3.213   1.632   5.874
   16PA     H8R  537   3.224   1.709   5.794
   16PA     H8S  538   3.272   1.679   5.955
   16PA     C17  539   3.255   1.496   5.824
   16PA     H7R  540   3.220   1.407   5.879
   16PA     H7S  541   3.239   1.485   5.714
   16PA     C16  542   3.396   1.486   5.855
   16PA     H6R  543   3.435   1.394   5.810
   16PA     H6S  544   3.420   1.571   5.786
   16PA     C15  545   3.430   1.506   6.007
   16PA     H5R  546   3.534   1.486   6.030
   16PA     H5S  547   3.422   1.610   6.043
   16PA     C14  548   3.403   1.394   6.104
   16PA     H4R  549   3.294   1.382   6.104
   16PA     H4S  550   3.454   1.303   6.066
   16PA     C13  551   3.461   1.421   6.245
   16PA     H3R  552   3.432   1.334   6.307
   16PA     H3S  553   3.572   1.421   6.248
   16PA     C12  554   3.410   1.553   6.305
   16PA     H2R  555   3.466   1.641   6.267
   16PA     H2S  556   3.304   1.568   6.276
   17PC     C11  557   3.423   1.555   6.457
   17PC     O12  558   3.453   1.460   6.527
   17PC     O11  559   3.401   1.679   6.496
   17PC      C1  560   3.423   1.701   6.635
   17PC      HR  561   3.497   1.632   6.681
   17PC      HS  562   3.466   1.803   6.646
   17PC      C2  563   3.287   1.698   6.710
   17PC      HX  564   3.224   1.779   6.668
   17PC      C3  565   3.305   1.732   6.860
   17PC      HA  566   3.405   1.692   6.892
   17PC      HB  567   3.312   1.843   6.867
   17PC     O31  568   3.192   1.686   6.939
   17PC     P31  569   3.222   1.567   7.039
   17PC     O32  570   3.076   1.513   7.076
   17PC     C31  571   3.004   1.455   6.967
   17PC     H1A  572   2.988   1.530   6.887
   17PC     H1B  573   3.060   1.369   6.921
   17PC     C32  574   2.868   1.400   7.017
   17PC     H2A  575   2.814   1.369   6.929
   17PC     H2B  576   2.891   1.311   7.077
   17PC     N31  577   2.782   1.497   7.099
   17PC     C33  578   2.831   1.498   7.241
   17PC     H3A  579   2.824   1.398   7.285
   17PC     H3B  580   2.936   1.525   7.245
   17PC     H3C  581   2.771   1.564   7.303
   17PC     C34  582   2.796   1.633   7.039
   17PC     H4A  583   2.901   1.660   7.040
   17PC     H4B  584   2.764   1.631   6.936
   17PC     H4C  585   2.737   1.707   7.092
   17PC     C35  586   2.639   1.459   7.100
   17PC     H5A  587   2.582   1.540   7.145
   17PC     H5B  588   2.623   1.371   7.162
   17PC     H5C  589   2.602   1.444   7.000
   17PC     O33  590   3.292   1.463   6.963
   17PC     O34  591   3.289   1.627   7.156
   17PC     O21  592   3.224   1.568   6.697
   17PC     C21  593   3.135   1.563   6.602
   17PC     O22  594   3.117   1.646   6.515
   18OL     C12  595   3.042   1.444   6.622
   18OL     H2R  596   2.954   1.483   6.678
   18OL     H2S  597   3.091   1.363   6.678
   18OL     C13  598   2.995   1.396   6.484
   18OL     H3R  599   3.080   1.351   6.429
   18OL     H3S  600   2.958   1.483   6.424
   18OL     C14  601   2.880   1.297   6.493
   18OL     H4R  602   2.807   1.330   6.570
   18OL     H4S  603   2.917   1.196   6.521
   18OL     C15  604   2.807   1.293   6.359
   18OL     H5R  605   2.777   1.395   6.328
   18OL     H5S  606   2.714   1.236   6.375
   18OL     C16  607   2.890   1.231   6.247
   18OL     H6R  608   2.913   1.126   6.273
   18OL     H6S  609   2.988   1.281   6.237
   18OL     C17  610   2.813   1.246   6.115
   18OL     H7R  611   2.814   1.350   6.078
   18OL     H7S  612   2.707   1.210   6.127
   18OL     C18  613   2.870   1.162   6.004
   18OL     H8R  614   2.800   1.155   5.919
   18OL     H8S  615   2.862   1.060   6.051
   18OL     C19  616   3.013   1.199   5.970
   18OL     H9R  617   3.085   1.204   6.054
   18OL    C110  618   3.069   1.199   5.850
   18OL    H10R  619   3.177   1.176   5.840
   18OL    C111  620   2.996   1.169   5.727
   18OL    H11R  621   2.890   1.155   5.746
   18OL    H11S  622   3.036   1.079   5.677
   18OL    C112  623   3.024   1.301   5.656
   18OL    H12R  624   3.128   1.299   5.619
   18OL    H12S  625   3.015   1.386   5.728
   18OL    C113  626   2.916   1.349   5.557
   18OL    H13R  627   2.918   1.459   5.555
   18OL    H13S  628   2.819   1.313   5.601
   18OL    C114  629   2.930   1.310   5.409
   18OL    H14R  630   2.844   1.335   5.347
   18OL    H14S  631   2.897   1.208   5.436
   18OL    C115  632   3.076   1.334   5.337
   18OL    H15R  633   3.140   1.297   5.419
   18OL    H15S  634   3.107   1.438   5.342
   18OL    C116  635   3.117   1.268   5.189
   18OL    H16R  636   3.055   1.318   5.114
   18OL    H16S  637   3.079   1.167   5.167
   18OL    C117  638   3.259   1.210   5.135
   18OL    H17R  639   3.243   1.181   5.028
   18OL    H17S  640   3.313   1.122   5.171
   18OL    C118  641   3.369   1.305   5.155
   18OL    H18R  642   3.462   1.315   5.098
   18OL    H18S  643   3.364   1.354   5.254
   18OL    H18T  644   3.306   1.355   5.085
   19PA    C116  645   2.779   3.171   5.285
   19PA    H16R  646   2.876   3.223   5.304
   19PA    H16S  647   2.698   3.246   5.279
   19PA    H16T  648   2.783   3.115   5.188
   19PA    C115  649   2.759   3.071   5.394
   19PA    H15R  650   2.654   3.034   5.383
   19PA    H15S  651   2.831   2.987   5.381
   19PA    C114  652   2.776   3.120   5.535
   19PA    H14R  653   2.772   3.027   5.593
   19PA    H14S  654   2.874   3.168   5.554
   19PA    C113  655   2.657   3.204   5.576
   19PA    H13R  656   2.661   3.304   5.529
   19PA    H13S  657   2.569   3.158   5.527
   19PA    C112  658   2.641   3.210   5.728
   19PA    H12R  659   2.541   3.250   5.755
   19PA    H12S  660   2.654   3.112   5.775
   19PA    C111  661   2.744   3.294   5.794
   19PA    H11R  662   2.718   3.306   5.902
   19PA    H11S  663   2.844   3.244   5.790
   19PA    C110  664   2.748   3.427   5.723
   19PA    H10R  665   2.788   3.422   5.619
   19PA    H10S  666   2.646   3.469   5.723
   19PA     C19  667   2.851   3.503   5.797
   19PA     H9R  668   2.828   3.487   5.904
   19PA     H9S  669   2.938   3.445   5.773
   19PA     C18  670   2.873   3.646   5.769
   19PA     H8R  671   2.955   3.694   5.828
   19PA     H8S  672   2.893   3.667   5.662
   19PA     C17  673   2.743   3.701   5.811
   19PA     H7R  674   2.756   3.798   5.769
   19PA     H7S  675   2.661   3.653   5.757
   19PA     C16  676   2.707   3.671   5.955
   19PA     H6R  677   2.657   3.572   5.960
   19PA     H6S  678   2.801   3.665   6.014
   19PA     C15  679   2.613   3.761   6.022
   19PA     H5R  680   2.686   3.838   6.038
   19PA     H5S  681   2.536   3.816   5.971
   19PA     C14  682   2.592   3.735   6.165
   19PA     H4R  683   2.533   3.823   6.178
   19PA     H4S  684   2.507   3.687   6.209
   19PA     C13  685   2.732   3.721   6.230
   19PA     H3R  686   2.763   3.616   6.225
   19PA     H3S  687   2.808   3.791   6.183
   19PA     C12  688   2.728   3.758   6.373
   19PA     H2R  689   2.736   3.866   6.347
   19PA     H2S  690   2.627   3.720   6.398
   20PC     C11  691   2.819   3.722   6.494
   20PC     O12  692   2.926   3.670   6.482
   20PC     O11  693   2.760   3.758   6.610
   20PC      C1  694   2.788   3.713   6.743
   20PC      HR  695   2.891   3.674   6.753
   20PC      HS  696   2.777   3.796   6.816
   20PC      C2  697   2.681   3.613   6.798
   20PC      HX  698   2.591   3.668   6.833
   20PC      C3  699   2.738   3.552   6.927
   20PC      HA  700   2.838   3.513   6.902
   20PC      HB  701   2.753   3.637   7.000
   20PC     O31  702   2.653   3.447   6.974
   20PC     P31  703   2.558   3.479   7.098
   20PC     O32  704   2.548   3.333   7.164
   20PC     C31  705   2.647   3.235   7.141
   20PC     H1A  706   2.750   3.277   7.134
   20PC     H1B  707   2.650   3.163   7.227
   20PC     C32  708   2.613   3.159   7.013
   20PC     H2A  709   2.617   3.230   6.931
   20PC     H2B  710   2.694   3.088   6.997
   20PC     N31  711   2.480   3.085   7.014
   20PC     C33  712   2.362   3.173   7.010
   20PC     H3A  713   2.365   3.238   6.922
   20PC     H3B  714   2.275   3.109   7.000
   20PC     H3C  715   2.357   3.238   7.096
   20PC     C34  716   2.465   3.014   6.888
   20PC     H4A  717   2.391   2.935   6.892
   20PC     H4B  718   2.447   3.076   6.802
   20PC     H4C  719   2.559   2.966   6.862
   20PC     C35  720   2.471   2.992   7.132
   20PC     H5A  721   2.558   2.927   7.144
   20PC     H5B  722   2.384   2.928   7.128
   20PC     H5C  723   2.465   3.051   7.223
   20PC     O33  724   2.630   3.563   7.196
   20PC     O34  725   2.421   3.511   7.056
   20PC     O21  726   2.650   3.516   6.696
   20PC     C21  727   2.527   3.467   6.688
   20PC     O22  728   2.436   3.474   6.767
   21OL     C12  729   2.518   3.382   6.561
   21OL     H2R  730   2.446   3.300   6.580
   21OL     H2S  731   2.618   3.338   6.541
   21OL     C13  732   2.471   3.460   6.438
   21OL     H3R  733   2.538   3.546   6.419
   21OL     H3S  734   2.368   3.501   6.452
   21OL     C14  735   2.474   3.369   6.316
   21OL     H4R  736   2.422   3.273   6.335
   21OL     H4S  737   2.579   3.350   6.286
   21OL     C15  738   2.404   3.431   6.198
   21OL     H5R  739   2.411   3.539   6.200
   21OL     H5S  740   2.295   3.415   6.211
   21OL     C16  741   2.466   3.377   6.069
   21OL     H6R  742   2.430   3.273   6.050
   21OL     H6S  743   2.577   3.379   6.066
   21OL     C17  744   2.427   3.462   5.953
   21OL     H7R  745   2.469   3.429   5.856
   21OL     H7S  746   2.455   3.567   5.974
   21OL     C18  747   2.275   3.435   5.951
   21OL     H8R  748   2.231   3.490   6.036
   21OL     H8S  749   2.255   3.337   5.975
   21OL     C19  750   2.257   3.523   5.832
   21OL     H9R  751   2.191   3.601   5.884
   21OL    C110  752   2.219   3.478   5.689
   21OL    H10R  753   2.137   3.477   5.662
   21OL    C111  754   2.293   3.367   5.601
   21OL    H11R  755   2.190   3.318   5.571
   21OL    H11S  756   2.345   3.284   5.643
   21OL    C112  757   2.283   3.353   5.447
   21OL    H12R  758   2.195   3.398   5.393
   21OL    H12S  759   2.285   3.248   5.409
   21OL    C113  760   2.406   3.421   5.422
   21OL    H13R  761   2.462   3.362   5.348
   21OL    H13S  762   2.469   3.431   5.515
   21OL    C114  763   2.356   3.556   5.385
   21OL    H14R  764   2.285   3.596   5.462
   21OL    H14S  765   2.315   3.548   5.282
   21OL    C115  766   2.455   3.656   5.393
   21OL    H15R  767   2.481   3.637   5.501
   21OL    H15S  768   2.423   3.763   5.385
   21OL    C116  769   2.537   3.613   5.276
   21OL    H16R  770   2.486   3.643   5.181
   21OL    H16S  771   2.558   3.504   5.266
   21OL    C117  772   2.667   3.669   5.300
   21OL    H17R  773   2.665   3.758   5.240
   21OL    H17S  774   2.741   3.603   5.248
   21OL    C118  775   2.688   3.700   5.451
   21OL    H18R  776   2.778   3.729   5.501
   21OL    H18S  777   2.679   3.606   5.508
   21OL    H18T  778   2.635   3.792   5.479
   22PA    C116  779   2.019   1.969   5.182
   22PA    H16R  780   2.060   1.868   5.161
   22PA    H16S  781   2.096   2.045   5.156
   22PA    H16T  782   1.930   1.985   5.118
   22PA    C115  783   1.976   1.985   5.327
   22PA    H15R  784   1.955   2.093   5.344
   22PA    H15S  785   1.881   1.931   5.344
   22PA    C114  786   2.079   1.940   5.430
   22PA    H14R  787   2.087   1.829   5.434
   22PA    H14S  788   2.179   1.980   5.401
   22PA    C113  789   2.041   1.995   5.568
   22PA    H13R  790   2.003   2.099   5.555
   22PA    H13S  791   1.957   1.937   5.607
   22PA    C112  792   2.159   2.001   5.666
   22PA    H12R  793   2.233   2.072   5.624
   22PA    H12S  794   2.122   2.043   5.762
   22PA    C111  795   2.231   1.867   5.693
   22PA    H11R  796   2.262   1.821   5.597
   22PA    H11S  797   2.325   1.891   5.749
   22PA    C110  798   2.150   1.766   5.776
   22PA    H10R  799   2.109   1.816   5.867
   22PA    H10S  800   2.065   1.734   5.713
   22PA     C19  801   2.230   1.641   5.817
   22PA     H9R  802   2.246   1.583   5.723
   22PA     H9S  803   2.330   1.669   5.856
   22PA     C18  804   2.158   1.546   5.915
   22PA     H8R  805   2.054   1.531   5.877
   22PA     H8S  806   2.209   1.447   5.909
   22PA     C17  807   2.151   1.582   6.066
   22PA     H7R  808   2.107   1.683   6.080
   22PA     H7S  809   2.080   1.509   6.112
   22PA     C16  810   2.284   1.568   6.141
   22PA     H6R  811   2.330   1.471   6.109
   22PA     H6S  812   2.353   1.649   6.109
   22PA     C15  813   2.279   1.562   6.296
   22PA     H5R  814   2.242   1.462   6.327
   22PA     H5S  815   2.383   1.571   6.334
   22PA     C14  816   2.192   1.668   6.369
   22PA     H4R  817   2.085   1.644   6.352
   22PA     H4S  818   2.210   1.658   6.479
   22PA     C13  819   2.221   1.813   6.328
   22PA     H3R  820   2.326   1.818   6.291
   22PA     H3S  821   2.153   1.843   6.245
   22PA     C12  822   2.215   1.915   6.445
   22PA     H2R  823   2.273   1.877   6.532
   22PA     H2S  824   2.259   2.012   6.413
   23PC     C11  825   2.076   1.947   6.494
   23PC     O12  826   1.973   1.939   6.429
   23PC     O11  827   2.091   2.001   6.614
   23PC      C1  828   1.971   2.022   6.686
   23PC      HR  829   1.987   2.099   6.765
   23PC      HS  830   1.894   2.071   6.621
   23PC      C2  831   1.916   1.891   6.758
   23PC      HX  832   1.839   1.928   6.837
   23PC      C3  833   1.992   1.821   6.857
   23PC      HA  834   2.030   1.898   6.928
   23PC      HB  835   1.916   1.752   6.904
   23PC     O31  836   2.086   1.751   6.780
   23PC     P31  837   2.211   1.700   6.843
   23PC     O32  838   2.190   1.748   6.994
   23PC     C31  839   2.104   1.678   7.085
   23PC     H1A  840   2.018   1.627   7.033
   23PC     H1B  841   2.164   1.598   7.132
   23PC     C32  842   2.040   1.771   7.192
   23PC     H2A  843   1.970   1.835   7.141
   23PC     H2B  844   1.981   1.708   7.257
   23PC     N31  845   2.133   1.856   7.278
   23PC     C33  846   2.210   1.950   7.189
   23PC     H3A  847   2.265   2.024   7.244
   23PC     H3B  848   2.278   1.893   7.125
   23PC     H3C  849   2.144   1.998   7.117
   23PC     C34  850   2.058   1.936   7.380
   23PC     H4A  851   2.126   2.007   7.429
   23PC     H4B  852   1.978   1.992   7.334
   23PC     H4C  853   2.013   1.875   7.458
   23PC     C35  854   2.231   1.764   7.345
   23PC     H5A  855   2.281   1.705   7.269
   23PC     H5B  856   2.179   1.698   7.414
   23PC     H5C  857   2.307   1.819   7.400
   23PC     O33  858   2.205   1.552   6.838
   23PC     O34  859   2.321   1.773   6.779
   23PC     O21  860   1.890   1.776   6.658
   23PC     C21  861   1.779   1.811   6.615
   23PC     O22  862   1.733   1.910   6.673
   24OL     C12  863   1.713   1.726   6.482
   24OL     H2R  864   1.696   1.625   6.520
   24OL     H2S  865   1.796   1.729   6.411
   24OL     C13  866   1.588   1.747   6.373
   24OL     H3R  867   1.551   1.835   6.321
   24OL     H3S  868   1.481   1.758   6.380
   24OL     C14  869   1.600   1.662   6.265
   24OL     H4R  870   1.493   1.634   6.258
   24OL     H4S  871   1.636   1.564   6.297
   24OL     C15  872   1.679   1.748   6.159
   24OL     H5R  873   1.673   1.689   6.067
   24OL     H5S  874   1.781   1.743   6.200
   24OL     C16  875   1.669   1.904   6.122
   24OL     H6R  876   1.687   1.973   6.205
   24OL     H6S  877   1.578   1.958   6.095
   24OL     C17  878   1.760   1.940   6.003
   24OL     H7R  879   1.858   1.894   6.019
   24OL     H7S  880   1.764   2.052   6.010
   24OL     C18  881   1.712   1.909   5.856
   24OL     H8R  882   1.777   1.956   5.779
   24OL     H8S  883   1.640   1.990   5.863
   24OL     C19  884   1.649   1.776   5.806
   24OL     H9R  885   1.546   1.750   5.822
   24OL    C110  886   1.691   1.683   5.728
   24OL    H10R  887   1.629   1.593   5.711
   24OL    C111  888   1.823   1.700   5.672
   24OL    H11R  889   1.885   1.619   5.711
   24OL    H11S  890   1.868   1.796   5.703
   24OL    C112  891   1.801   1.706   5.525
   24OL    H12R  892   1.891   1.751   5.479
   24OL    H12S  893   1.715   1.772   5.495
   24OL    C113  894   1.779   1.567   5.471
   24OL    H13R  895   1.727   1.499   5.542
   24OL    H13S  896   1.878   1.522   5.447
   24OL    C114  897   1.698   1.580   5.347
   24OL    H14R  898   1.590   1.602   5.367
   24OL    H14S  899   1.702   1.480   5.308
   24OL    C115  900   1.762   1.674   5.246
   24OL    H15R  901   1.858   1.631   5.211
   24OL    H15S  902   1.775   1.777   5.282
   24OL    C116  903   1.671   1.680   5.130
   24OL    H16R  904   1.566   1.682   5.170
   24OL    H16S  905   1.695   1.586   5.079
   24OL    C117  906   1.681   1.789   5.026
   24OL    H17R  907   1.681   1.879   5.090
   24OL    H17S  908   1.585   1.781   4.967
   24OL    C118  909   1.792   1.797   4.923
   24OL    H18R  910   1.760   1.857   4.835
   24OL    H18S  911   1.820   1.699   4.882
   24OL    H18T  912   1.881   1.844   4.966
   25PA    C116  913   2.936   3.734   5.347
   25PA    H16R  914   2.906   3.631   5.379
   25PA    H16S  915   2.870   3.760   5.258
   25PA    H16T  916   2.919   3.809   5.425
   25PA    C115  917   3.069   3.744   5.313
   25PA    H15R  918   3.028   3.682   5.240
   25PA    H15S  919   3.108   3.831   5.259
   25PA    C114  920   3.153   3.702   5.424
   25PA    H14R  921   3.093   3.636   5.492
   25PA    H14S  922   3.242   3.653   5.381
   25PA    C113  923   3.185   3.832   5.489
   25PA    H13R  924   3.222   3.902   5.409
   25PA    H13S  925   3.087   3.865   5.535
   25PA    C112  926   3.276   3.832   5.604
   25PA    H12R  927   3.223   3.763   5.673
   25PA    H12S  928   3.372   3.789   5.571
   25PA    C111  929   3.290   3.972   5.665
   25PA    H11R  930   3.342   4.040   5.593
   25PA    H11S  931   3.190   4.018   5.682
   25PA    C110  932   3.368   3.970   5.796
   25PA    H10R  933   3.474   3.942   5.773
   25PA    H10S  934   3.368   4.072   5.840
   25PA     C19  935   3.316   3.869   5.900
   25PA     H9R  936   3.346   3.767   5.870
   25PA     H9S  937   3.365   3.889   5.998
   25PA     C18  938   3.165   3.874   5.922
   25PA     H8R  939   3.109   3.846   5.830
   25PA     H8S  940   3.139   3.800   6.000
   25PA     C17  941   3.118   4.011   5.969
   25PA     H7R  942   3.200   4.063   6.023
   25PA     H7S  943   3.092   4.073   5.880
   25PA     C16  944   2.997   4.005   6.061
   25PA     H6R  945   2.929   3.931   6.016
   25PA     H6S  946   3.025   3.965   6.161
   25PA     C15  947   2.941   4.148   6.078
   25PA     H5R  948   3.018   4.199   6.131
   25PA     H5S  949   2.919   4.196   5.980
   25PA     C14  950   2.831   4.169   6.182
   25PA     H4R  951   2.772   4.093   6.150
   25PA     H4S  952   2.850   4.110   6.273
   25PA     C13  953   2.729   4.288   6.181
   25PA     H3R  954   2.710   4.329   6.080
   25PA     H3S  955   2.622   4.276   6.206
   25PA     C12  956   2.758   4.366   6.307
   25PA     H2R  957   2.863   4.371   6.299
   25PA     H2S  958   2.698   4.457   6.319
   26PC     C11  959   2.750   4.280   6.430
   26PC     O12  960   2.663   4.198   6.439
   26PC     O11  961   2.847   4.302   6.519
   26PC      C1  962   2.848   4.221   6.640
   26PC      HR  963   2.885   4.282   6.724
   26PC      HS  964   2.750   4.199   6.679
   26PC      C2  965   2.940   4.097   6.629
   26PC      HX  966   2.898   4.028   6.552
   26PC      C3  967   2.950   4.014   6.762
   26PC      HA  968   2.851   3.969   6.771
   26PC      HB  969   3.020   3.928   6.750
   26PC     O31  970   2.976   4.091   6.881
   26PC     P31  971   2.935   4.020   7.019
   26PC     O32  972   3.050   3.909   7.034
   26PC     C31  973   3.090   3.882   7.169
   26PC     H1A  974   3.138   3.971   7.215
   26PC     H1B  975   3.001   3.860   7.233
   26PC     C32  976   3.193   3.765   7.179
   26PC     H2A  977   3.227   3.764   7.283
   26PC     H2B  978   3.139   3.673   7.159
   26PC     N31  979   3.317   3.774   7.089
   26PC     C33  980   3.362   3.917   7.085
   26PC     H3A  981   3.281   3.977   7.042
   26PC     H3B  982   3.380   3.955   7.184
   26PC     H3C  983   3.450   3.929   7.022
   26PC     C34  984   3.429   3.688   7.136
   26PC     H4A  985   3.409   3.583   7.111
   26PC     H4B  986   3.521   3.715   7.084
   26PC     H4C  987   3.444   3.697   7.242
   26PC     C35  988   3.283   3.733   6.949
   26PC     H5A  989   3.267   3.625   6.941
   26PC     H5B  990   3.361   3.757   6.878
   26PC     H5C  991   3.191   3.784   6.918
   26PC     O33  992   2.944   4.114   7.134
   26PC     O34  993   2.806   3.952   6.999
   26PC     O21  994   3.068   4.147   6.589
   26PC     C21  995   3.141   4.061   6.523
   26PC     O22  996   3.115   3.944   6.505
   27OL     C12  997   3.262   4.134   6.466
   27OL     H2R  998   3.346   4.062   6.467
   27OL     H2S  999   3.287   4.217   6.536
   27OL     C13 1000   3.238   4.182   6.320
   27OL     H3R 1001   3.202   4.102   6.253
   27OL     H3S 1002   3.335   4.222   6.284
   27OL     C14 1003   3.139   4.298   6.313
   27OL     H4R 1004   3.179   4.341   6.406
   27OL     H4S 1005   3.036   4.277   6.345
   27OL     C15 1006   3.141   4.389   6.182
   27OL     H5R 1007   3.144   4.324   6.093
   27OL     H5S 1008   3.239   4.439   6.173
   27OL     C16 1009   3.013   4.478   6.157
   27OL     H6R 1010   2.966   4.566   6.200
   27OL     H6S 1011   2.987   4.481   6.261
   27OL     C17 1012   3.021   4.594   6.053
   27OL     H7R 1013   3.113   4.641   6.066
   27OL     H7S 1014   2.955   4.685   6.055
   27OL     C18 1015   3.022   4.536   5.924
   27OL     H8R 1016   3.099   4.456   5.919
   27OL     H8S 1017   3.039   4.615   5.846
   27OL     C19 1018   2.884   4.483   5.948
   27OL     H9R 1019   2.820   4.515   6.032
   27OL    C110 1020   2.827   4.433   5.849
   27OL    H10R 1021   2.726   4.391   5.854
   27OL    C111 1022   2.905   4.440   5.727
   27OL    H11R 1023   2.992   4.505   5.704
   27OL    H11S 1024   2.842   4.508   5.684
   27OL    C112 1025   2.924   4.308   5.674
   27OL    H12R 1026   2.824   4.261   5.657
   27OL    H12S 1027   2.972   4.247   5.755
   27OL    C113 1028   3.020   4.331   5.554
   27OL    H13R 1029   3.075   4.235   5.562
   27OL    H13S 1030   3.095   4.410   5.567
   27OL    C114 1031   2.938   4.362   5.425
   27OL    H14R 1032   2.935   4.467   5.395
   27OL    H14S 1033   2.846   4.313   5.462
   27OL    C115 1034   2.945   4.314   5.284
   27OL    H15R 1035   2.882   4.345   5.200
   27OL    H15S 1036   2.900   4.220   5.286
   27OL    C116 1037   3.078   4.334   5.239
   27OL    H16R 1038   3.152   4.314   5.320
   27OL    H16S 1039   3.080   4.436   5.196
   27OL    C117 1040   3.100   4.242   5.131
   27OL    H17R 1041   3.011   4.222   5.068
   27OL    H17S 1042   3.129   4.147   5.178
   27OL    C118 1043   3.216   4.301   5.060
   27OL    H18R 1044   3.304   4.291   5.129
   27OL    H18S 1045   3.204   4.403   5.024
   27OL    H18T 1046   3.221   4.244   4.969
   28PA    C116 1047   3.941   3.855   5.134
   28PA    H16R 1048   3.876   3.765   5.129
   28PA    H16S 1049   4.046   3.818   5.133
   28PA    H16T 1050   3.930   3.913   5.040
   28PA    C115 1051   3.879   3.910   5.259
   28PA    H15R 1052   3.940   4.000   5.279
   28PA    H15S 1053   3.776   3.932   5.223
   28PA    C114 1054   3.862   3.829   5.393
   28PA    H14R 1055   3.811   3.731   5.380
   28PA    H14S 1056   3.964   3.810   5.436
   28PA    C113 1057   3.811   3.904   5.511
   28PA    H13R 1058   3.878   3.992   5.523
   28PA    H13S 1059   3.709   3.935   5.478
   28PA    C112 1060   3.806   3.825   5.643
   28PA    H12R 1061   3.742   3.885   5.711
   28PA    H12S 1062   3.757   3.729   5.625
   28PA    C111 1063   3.938   3.794   5.717
   28PA    H11R 1064   3.999   3.721   5.659
   28PA    H11S 1065   3.996   3.888   5.728
   28PA    C110 1066   3.911   3.736   5.858
   28PA    H10R 1067   3.878   3.817   5.926
   28PA    H10S 1068   3.828   3.665   5.849
   28PA     C19 1069   4.028   3.661   5.923
   28PA     H9R 1070   4.002   3.638   6.029
   28PA     H9S 1071   4.045   3.564   5.872
   28PA     C18 1072   4.158   3.740   5.924
   28PA     H8R 1073   4.235   3.675   5.969
   28PA     H8S 1074   4.193   3.763   5.821
   28PA     C17 1075   4.152   3.866   6.009
   28PA     H7R 1076   4.097   3.946   5.955
   28PA     H7S 1077   4.102   3.849   6.107
   28PA     C16 1078   4.294   3.912   6.036
   28PA     H6R 1079   4.358   3.876   5.952
   28PA     H6S 1080   4.295   4.022   6.028
   28PA     C15 1081   4.355   3.861   6.168
   28PA     H5R 1082   4.324   3.758   6.191
   28PA     H5S 1083   4.466   3.864   6.168
   28PA     C14 1084   4.314   3.931   6.291
   28PA     H4R 1085   4.231   3.866   6.329
   28PA     H4S 1086   4.395   3.932   6.368
   28PA     C13 1087   4.276   4.075   6.267
   28PA     H3R 1088   4.360   4.120   6.217
   28PA     H3S 1089   4.195   4.097   6.194
   28PA     C12 1090   4.244   4.129   6.402
   28PA     H2R 1091   4.325   4.111   6.477
   28PA     H2S 1092   4.217   4.235   6.391
   29PC     C11 1093   4.127   4.043   6.431
   29PC     O12 1094   4.042   4.017   6.348
   29PC     O11 1095   4.134   3.982   6.548
   29PC      C1 1096   4.014   3.902   6.557
   29PC      HR 1097   3.924   3.965   6.572
   29PC      HS 1098   3.997   3.837   6.468
   29PC      C2 1099   4.021   3.813   6.680
   29PC      HX 1100   3.945   3.732   6.664
   29PC      C3 1101   3.981   3.893   6.806
   29PC      HA 1102   4.059   3.970   6.824
   29PC      HB 1103   3.884   3.946   6.788
   29PC     O31 1104   3.978   3.808   6.918
   29PC     P31 1105   3.850   3.784   7.007
   29PC     O32 1106   3.907   3.658   7.085
   29PC     C31 1107   4.018   3.686   7.172
   29PC     H1A 1108   4.084   3.770   7.140
   29PC     H1B 1109   3.975   3.715   7.268
   29PC     C32 1110   4.099   3.559   7.203
   29PC     H2A 1111   4.170   3.588   7.281
   29PC     H2B 1112   4.030   3.489   7.248
   29PC     N31 1113   4.178   3.496   7.090
   29PC     C33 1114   4.289   3.417   7.150
   29PC     H3A 1115   4.348   3.474   7.220
   29PC     H3B 1116   4.251   3.330   7.202
   29PC     H3C 1117   4.356   3.384   7.072
   29PC     C34 1118   4.093   3.407   7.006
   29PC     H4A 1119   4.147   3.376   6.918
   29PC     H4B 1120   4.063   3.320   7.062
   29PC     H4C 1121   4.002   3.459   6.973
   29PC     C35 1122   4.234   3.606   7.003
   29PC     H5A 1123   4.293   3.568   6.922
   29PC     H5B 1124   4.291   3.675   7.063
   29PC     H5C 1125   4.151   3.664   6.959
   29PC     O33 1126   3.831   3.898   7.102
   29PC     O34 1127   3.736   3.744   6.923
   29PC     O21 1128   4.152   3.758   6.699
   29PC     C21 1129   4.204   3.691   6.598
   29PC     O22 1130   4.148   3.658   6.495
   30OL     C12 1131   4.345   3.652   6.639
   30OL     H2R 1132   4.346   3.543   6.655
   30OL     H2S 1133   4.372   3.705   6.732
   30OL     C13 1134   4.451   3.692   6.537
   30OL     H3R 1135   4.552   3.683   6.584
   30OL     H3S 1136   4.441   3.796   6.501
   30OL     C14 1137   4.450   3.601   6.417
   30OL     H4R 1138   4.353   3.598   6.364
   30OL     H4S 1139   4.468   3.497   6.454
   30OL     C15 1140   4.560   3.647   6.324
   30OL     H5R 1141   4.657   3.621   6.374
   30OL     H5S 1142   4.567   3.755   6.305
   30OL     C16 1143   4.551   3.571   6.193
   30OL     H6R 1144   4.503   3.479   6.231
   30OL     H6S 1145   4.657   3.563   6.166
   30OL     C17 1146   4.446   3.593   6.084
   30OL     H7R 1147   4.458   3.695   6.047
   30OL     H7S 1148   4.348   3.575   6.135
   30OL     C18 1149   4.435   3.504   5.959
   30OL     H8R 1150   4.329   3.493   5.929
   30OL     H8S 1151   4.461   3.402   5.988
   30OL     C19 1152   4.517   3.557   5.845
   30OL     H9R 1153   4.612   3.606   5.875
   30OL    C110 1154   4.492   3.541   5.715
   30OL    H10R 1155   4.566   3.579   5.642
   30OL    C111 1156   4.375   3.466   5.657
   30OL    H11R 1157   4.305   3.431   5.735
   30OL    H11S 1158   4.408   3.375   5.602
   30OL    C112 1159   4.295   3.555   5.561
   30OL    H12R 1160   4.268   3.651   5.609
   30OL    H12S 1161   4.201   3.502   5.533
   30OL    C113 1162   4.373   3.583   5.435
   30OL    H13R 1163   4.482   3.592   5.454
   30OL    H13S 1164   4.341   3.678   5.386
   30OL    C114 1165   4.351   3.473   5.337
   30OL    H14R 1166   4.248   3.467   5.296
   30OL    H14S 1167   4.367   3.373   5.375
   30OL    C115 1168   4.444   3.501   5.226
   30OL    H15R 1169   4.545   3.538   5.255
   30OL    H15S 1170   4.385   3.574   5.169
   30OL    C116 1171   4.458   3.384   5.144
   30OL    H16R 1172   4.527   3.314   5.190
   30OL    H16S 1173   4.516   3.393   5.057
   30OL    C117 1174   4.329   3.345   5.085
   30OL    H17R 1175   4.278   3.427   5.031
   30OL    H17S 1176   4.258   3.296   5.156
   30OL    C118 1177   4.369   3.250   4.985
   30OL    H18R 1178   4.428   3.281   4.897
   30OL    H18S 1179   4.296   3.179   4.980
   30OL    H18T 1180   4.414   3.157   5.014
   31PA    C116 1181   4.210   2.866   5.227
   31PA    H16R 1182   4.283   2.894   5.148
   31PA    H16S 1183   4.119   2.829   5.176
   31PA    H16T 1184   4.256   2.783   5.285
   31PA    C115 1185   4.175   2.985   5.318
   31PA    H15R 1186   4.255   3.005   5.393
   31PA    H15S 1187   4.163   3.078   5.258
   31PA    C114 1188   4.064   2.967   5.419
   31PA    H14R 1189   4.064   3.062   5.477
   31PA    H14S 1190   3.967   2.954   5.369
   31PA    C113 1191   4.096   2.855   5.520
   31PA    H13R 1192   4.207   2.845   5.532
   31PA    H13S 1193   4.056   2.887   5.619
   31PA    C112 1194   4.037   2.719   5.487
   31PA    H12R 1195   3.926   2.723   5.501
   31PA    H12S 1196   4.057   2.694   5.380
   31PA    C111 1197   4.097   2.608   5.574
   31PA    H11R 1198   4.058   2.509   5.546
   31PA    H11S 1199   4.206   2.603   5.555
   31PA    C110 1200   4.078   2.629   5.724
   31PA    H10R 1201   4.137   2.718   5.754
   31PA    H10S 1202   3.971   2.649   5.748
   31PA     C19 1203   4.126   2.507   5.801
   31PA     H9R 1204   4.062   2.420   5.782
   31PA     H9S 1205   4.227   2.477   5.765
   31PA     C18 1206   4.123   2.531   5.952
   31PA     H8R 1207   4.178   2.625   5.977
   31PA     H8S 1208   4.017   2.539   5.985
   31PA     C17 1209   4.185   2.414   6.026
   31PA     H7R 1210   4.121   2.326   6.002
   31PA     H7S 1211   4.279   2.394   5.972
   31PA     C16 1212   4.194   2.427   6.181
   31PA     H6R 1213   4.092   2.444   6.220
   31PA     H6S 1214   4.221   2.328   6.223
   31PA     C15 1215   4.293   2.528   6.244
   31PA     H5R 1216   4.399   2.497   6.236
   31PA     H5S 1217   4.287   2.626   6.191
   31PA     C14 1218   4.283   2.545   6.396
   31PA     H4R 1219   4.192   2.603   6.421
   31PA     H4S 1220   4.278   2.446   6.446
   31PA     C13 1221   4.410   2.615   6.447
   31PA     H3R 1222   4.493   2.542   6.446
   31PA     H3S 1223   4.439   2.695   6.376
   31PA     C12 1224   4.390   2.675   6.588
   31PA     H2R 1225   4.326   2.765   6.582
   31PA     H2S 1226   4.340   2.600   6.653
   32PC     C11 1227   4.524   2.707   6.651
   32PC     O12 1228   4.630   2.657   6.620
   32PC     O11 1229   4.511   2.797   6.744
   32PC      C1 1230   4.640   2.834   6.799
   32PC      HR 1231   4.703   2.748   6.830
   32PC      HS 1232   4.697   2.895   6.725
   32PC      C2 1233   4.612   2.920   6.921
   32PC      HX 1234   4.707   2.972   6.949
   32PC      C3 1235   4.568   2.837   7.044
   32PC      HA 1236   4.652   2.770   7.074
   32PC      HB 1237   4.547   2.904   7.131
   32PC     O31 1238   4.451   2.764   7.010
   32PC     P31 1239   4.412   2.632   7.085
   32PC     O32 1240   4.253   2.649   7.085
   32PC     C31 1241   4.179   2.680   6.967
   32PC     H1A 1242   4.229   2.638   6.876
   32PC     H1B 1243   4.081   2.630   6.976
   32PC     C32 1244   4.155   2.832   6.940
   32PC     H2A 1245   4.252   2.870   6.905
   32PC     H2B 1246   4.087   2.837   6.857
   32PC     N31 1247   4.101   2.921   7.052
   32PC     C33 1248   4.206   2.922   7.159
   32PC     H3A 1249   4.178   2.976   7.248
   32PC     H3B 1250   4.230   2.820   7.190
   32PC     H3C 1251   4.301   2.960   7.123
   32PC     C34 1252   4.082   3.061   7.005
   32PC     H4A 1253   4.010   3.069   6.925
   32PC     H4B 1254   4.050   3.124   7.087
   32PC     H4C 1255   4.177   3.101   6.969
   32PC     C35 1256   3.972   2.863   7.098
   32PC     H5A 1257   3.989   2.759   7.124
   32PC     H5B 1258   3.899   2.868   7.017
   32PC     H5C 1259   3.933   2.913   7.186
   32PC     O33 1260   4.455   2.515   7.004
   32PC     O34 1261   4.465   2.642   7.222
   32PC     O21 1262   4.510   3.013   6.875
   32PC     C21 1263   4.504   3.118   6.948
   32PC     O22 1264   4.566   3.134   7.051
   33OL     C12 1265   4.405   3.220   6.891
   33OL     H2R 1266   4.458   3.311   6.857
   33OL     H2S 1267   4.341   3.246   6.976
   33OL     C13 1268   4.323   3.155   6.778
   33OL     H3R 1269   4.274   3.065   6.817
   33OL     H3S 1270   4.392   3.114   6.701
   33OL     C14 1271   4.221   3.248   6.713
   33OL     H4R 1272   4.267   3.344   6.682
   33OL     H4S 1273   4.143   3.270   6.788
   33OL     C15 1274   4.150   3.180   6.595
   33OL     H5R 1275   4.059   3.239   6.570
   33OL     H5S 1276   4.117   3.080   6.631
   33OL     C16 1277   4.233   3.164   6.466
   33OL     H6R 1278   4.333   3.201   6.487
   33OL     H6S 1279   4.194   3.230   6.385
   33OL     C17 1280   4.247   3.019   6.415
   33OL     H7R 1281   4.157   2.994   6.355
   33OL     H7S 1282   4.248   2.952   6.504
   33OL     C18 1283   4.374   2.985   6.333
   33OL     H8R 1284   4.376   2.875   6.322
   33OL     H8S 1285   4.466   3.012   6.389
   33OL     C19 1286   4.375   3.043   6.194
   33OL     H9R 1287   4.319   3.137   6.185
   33OL    C110 1288   4.460   3.011   6.094
   33OL    H10R 1289   4.460   3.076   6.005
   33OL    C111 1290   4.573   2.911   6.098
   33OL    H11R 1291   4.578   2.856   6.194
   33OL    H11S 1292   4.672   2.962   6.086
   33OL    C112 1293   4.560   2.813   5.983
   33OL    H12R 1294   4.456   2.773   5.980
   33OL    H12S 1295   4.630   2.728   5.996
   33OL    C113 1296   4.590   2.876   5.849
   33OL    H13R 1297   4.700   2.894   5.839
   33OL    H13S 1298   4.542   2.976   5.834
   33OL    C114 1299   4.540   2.780   5.743
   33OL    H14R 1300   4.432   2.799   5.723
   33OL    H14S 1301   4.557   2.673   5.767
   33OL    C115 1302   4.612   2.814   5.619
   33OL    H15R 1303   4.723   2.814   5.626
   33OL    H15S 1304   4.578   2.915   5.620
   33OL    C116 1305   4.551   2.754   5.497
   33OL    H16R 1306   4.453   2.793   5.467
   33OL    H16S 1307   4.550   2.646   5.521
   33OL    C117 1308   4.648   2.772   5.392
   33OL    H17R 1309   4.694   2.868   5.378
   33OL    H17S 1310   4.620   2.775   5.288
   33OL    C118 1311   4.748   2.670   5.426
   33OL    H18R 1312   4.744   2.562   5.435
   33OL    H18S 1313   4.837   2.718   5.474
   33OL    H18T 1314   4.758   2.661   5.318
   34PA    C116 1315   4.065   1.152   5.258
   34PA    H16R 1316   4.130   1.220   5.200
   34PA    H16S 1317   3.961   1.160   5.219
   34PA    H16T 1318   4.100   1.048   5.242
   34PA    C115 1319   4.068   1.187   5.406
   34PA    H15R 1320   4.174   1.190   5.441
   34PA    H15S 1321   4.026   1.290   5.421
   34PA    C114 1322   3.987   1.091   5.494
   34PA    H14R 1323   3.880   1.092   5.463
   34PA    H14S 1324   4.024   0.987   5.480
   34PA    C113 1325   3.996   1.130   5.642
   34PA    H13R 1326   4.098   1.172   5.661
   34PA    H13S 1327   3.923   1.211   5.663
   34PA    C112 1328   3.976   1.014   5.741
   34PA    H12R 1329   4.045   0.932   5.709
   34PA    H12S 1330   4.010   1.047   5.842
   34PA    C111 1331   3.834   0.955   5.749
   34PA    H11R 1332   3.810   0.912   5.649
   34PA    H11S 1333   3.840   0.870   5.821
   34PA    C110 1334   3.716   1.045   5.791
   34PA    H10R 1335   3.683   1.104   5.703
   34PA    H10S 1336   3.629   0.979   5.815
   34PA     C19 1337   3.738   1.142   5.908
   34PA     H9R 1338   3.710   1.089   6.003
   34PA     H9S 1339   3.845   1.170   5.918
   34PA     C18 1340   3.660   1.274   5.892
   34PA     H8R 1341   3.554   1.248   5.874
   34PA     H8S 1342   3.665   1.323   5.992
   34PA     C17 1343   3.723   1.370   5.783
   34PA     H7R 1344   3.820   1.399   5.826
   34PA     H7S 1345   3.736   1.308   5.692
   34PA     C16 1346   3.657   1.505   5.735
   34PA     H6R 1347   3.690   1.558   5.649
   34PA     H6S 1348   3.564   1.473   5.683
   34PA     C15 1349   3.643   1.619   5.843
   34PA     H5R 1350   3.553   1.683   5.842
   34PA     H5S 1351   3.630   1.526   5.896
   34PA     C14 1352   3.729   1.668   5.961
   34PA     H4R 1353   3.822   1.608   5.959
   34PA     H4S 1354   3.741   1.776   5.937
   34PA     C13 1355   3.675   1.668   6.108
   34PA     H3R 1356   3.580   1.725   6.123
   34PA     H3S 1357   3.663   1.564   6.145
   34PA     C12 1358   3.780   1.723   6.205
   34PA     H2R 1359   3.873   1.671   6.176
   34PA     H2S 1360   3.788   1.832   6.193
   35PC     C11 1361   3.754   1.692   6.352
   35PC     O12 1362   3.658   1.726   6.417
   35PC     O11 1363   3.862   1.632   6.398
   35PC      C1 1364   3.864   1.604   6.538
   35PC      HR 1365   3.971   1.608   6.569
   35PC      HS 1366   3.809   1.680   6.598
   35PC      C2 1367   3.812   1.462   6.571
   35PC      HX 1368   3.707   1.449   6.534
   35PC      C3 1369   3.810   1.446   6.724
   35PC      HA 1370   3.914   1.469   6.756
   35PC      HB 1371   3.741   1.524   6.767
   35PC     O31 1372   3.776   1.313   6.765
   35PC     P31 1373   3.725   1.294   6.915
   35PC     O32 1374   3.833   1.380   6.998
   35PC     C31 1375   3.971   1.350   6.983
   35PC     H1A 1376   3.999   1.330   6.876
   35PC     H1B 1377   4.032   1.438   7.014
   35PC     C32 1378   4.009   1.225   7.064
   35PC     H2A 1379   3.939   1.147   7.030
   35PC     H2B 1380   4.109   1.198   7.033
   35PC     N31 1381   4.006   1.234   7.216
   35PC     C33 1382   3.863   1.237   7.263
   35PC     H3A 1383   3.798   1.296   7.197
   35PC     H3B 1384   3.818   1.139   7.258
   35PC     H3C 1385   3.851   1.273   7.363
   35PC     C34 1386   4.065   1.110   7.276
   35PC     H4A 1387   4.172   1.102   7.257
   35PC     H4B 1388   4.048   1.108   7.383
   35PC     H4C 1389   4.019   1.022   7.233
   35PC     C35 1390   4.085   1.353   7.263
   35PC     H5A 1391   4.192   1.335   7.249
   35PC     H5B 1392   4.071   1.374   7.368
   35PC     H5C 1393   4.059   1.441   7.205
   35PC     O33 1394   3.597   1.363   6.931
   35PC     O34 1395   3.743   1.154   6.962
   35PC     O21 1396   3.904   1.365   6.517
   35PC     C21 1397   3.875   1.326   6.395
   35PC     O22 1398   3.780   1.363   6.329
   36OL     C12 1399   3.982   1.228   6.346
   36OL     H2R 1400   3.931   1.131   6.329
   36OL     H2S 1401   4.059   1.214   6.424
   36OL     C13 1402   4.044   1.283   6.216
   36OL     H3R 1403   3.964   1.321   6.148
   36OL     H3S 1404   4.095   1.200   6.163
   36OL     C14 1405   4.147   1.393   6.247
   36OL     H4R 1406   4.232   1.347   6.302
   36OL     H4S 1407   4.102   1.470   6.314
   36OL     C15 1408   4.204   1.465   6.124
   36OL     H5R 1409   4.233   1.389   6.047
   36OL     H5S 1410   4.297   1.517   6.156
   36OL     C16 1411   4.109   1.569   6.064
   36OL     H6R 1412   4.087   1.644   6.143
   36OL     H6S 1413   4.014   1.521   6.034
   36OL     C17 1414   4.166   1.646   5.943
   36OL     H7R 1415   4.250   1.708   5.981
   36OL     H7S 1416   4.087   1.715   5.904
   36OL     C18 1417   4.221   1.560   5.828
   36OL     H8R 1418   4.305   1.499   5.867
   36OL     H8S 1419   4.264   1.629   5.753
   36OL     C19 1420   4.115   1.471   5.768
   36OL     H9R 1421   4.078   1.391   5.834
   36OL    C110 1422   4.060   1.485   5.647
   36OL    H10R 1423   3.980   1.416   5.616
   36OL    C111 1424   4.093   1.592   5.545
   36OL    H11R 1425   4.073   1.553   5.442
   36OL    H11S 1426   4.200   1.620   5.548
   36OL    C112 1427   4.009   1.720   5.560
   36OL    H12R 1428   4.039   1.792   5.481
   36OL    H12S 1429   4.023   1.768   5.660
   36OL    C113 1430   3.861   1.688   5.548
   36OL    H13R 1431   3.850   1.635   5.643
   36OL    H13S 1432   3.839   1.618   5.465
   36OL    C114 1433   3.767   1.809   5.544
   36OL    H14R 1434   3.784   1.870   5.635
   36OL    H14S 1435   3.660   1.776   5.546
   36OL    C115 1436   3.789   1.894   5.420
   36OL    H15R 1437   3.893   1.935   5.420
   36OL    H15S 1438   3.719   1.979   5.420
   36OL    C116 1439   3.776   1.808   5.295
   36OL    H16R 1440   3.673   1.763   5.292
   36OL    H16S 1441   3.855   1.732   5.294
   36OL    C117 1442   3.794   1.887   5.169
   36OL    H17R 1443   3.879   1.959   5.164
   36OL    H17S 1444   3.708   1.940   5.205
   36OL    C118 1445   3.768   1.815   5.037
   36OL    H18R 1446   3.776   1.880   4.948
   36OL    H18S 1447   3.669   1.765   5.036
   36OL    H18T 1448   3.851   1.744   5.025
   37PA    C116 1449   1.834   2.517   5.311
   37PA    H16R 1450   1.888   2.591   5.250
   37PA    H16S 1451   1.755   2.471   5.249
   37PA    H16T 1452   1.899   2.435   5.347
   37PA    C115 1453   1.761   2.589   5.421
   37PA    H15R 1454   1.688   2.664   5.389
   37PA    H15S 1455   1.712   2.508   5.473
   37PA    C114 1456   1.829   2.662   5.530
   37PA    H14R 1457   1.909   2.723   5.484
   37PA    H14S 1458   1.755   2.731   5.577
   37PA    C113 1459   1.869   2.553   5.625
   37PA    H13R 1460   1.779   2.512   5.676
   37PA    H13S 1461   1.915   2.469   5.568
   37PA    C112 1462   1.968   2.605   5.723
   37PA    H12R 1463   2.056   2.644   5.667
   37PA    H12S 1464   1.915   2.688   5.772
   37PA    C111 1465   2.004   2.495   5.820
   37PA    H11R 1466   1.912   2.443   5.855
   37PA    H11S 1467   2.066   2.422   5.763
   37PA    C110 1468   2.084   2.544   5.941
   37PA    H10R 1469   2.169   2.593   5.889
   37PA    H10S 1470   2.028   2.622   5.996
   37PA     C19 1471   2.123   2.422   6.030
   37PA     H9R 1472   2.034   2.372   6.071
   37PA     H9S 1473   2.177   2.355   5.958
   37PA     C18 1474   2.209   2.434   6.158
   37PA     H8R 1475   2.257   2.349   6.209
   37PA     H8S 1476   2.297   2.422   6.095
   37PA     C17 1477   2.187   2.561   6.250
   37PA     H7R 1478   2.274   2.617   6.288
   37PA     H7S 1479   2.142   2.648   6.196
   37PA     C16 1480   2.089   2.549   6.357
   37PA     H6R 1481   2.008   2.503   6.295
   37PA     H6S 1482   2.126   2.479   6.434
   37PA     C15 1483   2.047   2.689   6.406
   37PA     H5R 1484   2.018   2.756   6.322
   37PA     H5S 1485   1.956   2.664   6.464
   37PA     C14 1486   2.138   2.771   6.500
   37PA     H4R 1487   2.072   2.848   6.545
   37PA     H4S 1488   2.164   2.705   6.586
   37PA     C13 1489   2.261   2.849   6.445
   37PA     H3R 1490   2.340   2.782   6.410
   37PA     H3S 1491   2.242   2.913   6.357
   37PA     C12 1492   2.328   2.929   6.557
   37PA     H2R 1493   2.327   2.871   6.653
   37PA     H2S 1494   2.432   2.955   6.529
   38PC     C11 1495   2.258   3.059   6.578
   38PC     O12 1496   2.219   3.132   6.489
   38PC     O11 1497   2.249   3.080   6.709
   38PC      C1 1498   2.145   3.170   6.745
   38PC      HR 1499   2.180   3.230   6.831
   38PC      HS 1500   2.121   3.245   6.666
   38PC      C2 1501   2.020   3.089   6.787
   38PC      HX 1502   1.945   3.155   6.827
   38PC      C3 1503   2.046   2.985   6.900
   38PC      HA 1504   2.122   2.911   6.868
   38PC      HB 1505   2.087   3.039   6.988
   38PC     O31 1506   1.922   2.926   6.941
   38PC     P31 1507   1.887   2.777   6.894
   38PC     O32 1508   1.983   2.691   6.984
   38PC     C31 1509   2.009   2.723   7.120
   38PC     H1A 1510   2.109   2.685   7.149
   38PC     H1B 1511   2.012   2.834   7.138
   38PC     C32 1512   1.901   2.664   7.214
   38PC     H2A 1513   1.925   2.696   7.314
   38PC     H2B 1514   1.810   2.716   7.188
   38PC     N31 1515   1.875   2.513   7.213
   38PC     C33 1516   1.830   2.472   7.076
   38PC     H3A 1517   1.909   2.485   7.002
   38PC     H3B 1518   1.790   2.373   7.071
   38PC     H3C 1519   1.753   2.541   7.039
   38PC     C34 1520   2.000   2.441   7.254
   38PC     H4A 1521   2.042   2.483   7.345
   38PC     H4B 1522   1.984   2.336   7.268
   38PC     H4C 1523   2.076   2.453   7.176
   38PC     C35 1524   1.763   2.484   7.306
   38PC     H5A 1525   1.675   2.540   7.274
   38PC     H5B 1526   1.786   2.517   7.407
   38PC     H5C 1527   1.739   2.379   7.306
   38PC     O33 1528   1.749   2.748   6.939
   38PC     O34 1529   1.926   2.758   6.754
   38PC     O21 1530   1.965   3.025   6.673
   38PC     C21 1531   1.880   3.102   6.608
   38PC     O22 1532   1.870   3.223   6.621
   39OL     C12 1533   1.796   3.018   6.517
   39OL     H2R 1534   1.690   3.052   6.527
   39OL     H2S 1535   1.801   2.911   6.545
   39OL     C13 1536   1.856   3.049   6.379
   39OL     H3R 1537   1.952   2.996   6.364
   39OL     H3S 1538   1.868   3.159   6.365
   39OL     C14 1539   1.764   3.012   6.269
   39OL     H4R 1540   1.674   3.076   6.281
   39OL     H4S 1541   1.745   2.904   6.292
   39OL     C15 1542   1.813   3.037   6.127
   39OL     H5R 1543   1.878   3.125   6.133
   39OL     H5S 1544   1.731   3.072   6.060
   39OL     C16 1545   1.878   2.910   6.070
   39OL     H6R 1546   1.818   2.820   6.078
   39OL     H6S 1547   1.964   2.886   6.134
   39OL     C17 1548   1.918   2.917   5.923
   39OL     H7R 1549   1.836   2.953   5.855
   39OL     H7S 1550   1.958   2.822   5.887
   39OL     C18 1551   2.034   3.006   5.911
   39OL     H8R 1552   1.991   3.086   5.971
   39OL     H8S 1553   2.041   3.028   5.803
   39OL     C19 1554   2.162   2.993   5.986
   39OL     H9R 1555   2.150   2.932   6.077
   39OL    C110 1556   2.283   3.032   5.941
   39OL    H10R 1557   2.371   3.037   6.004
   39OL    C111 1558   2.319   3.092   5.814
   39OL    H11R 1559   2.354   3.195   5.832
   39OL    H11S 1560   2.230   3.074   5.762
   39OL    C112 1561   2.393   3.030   5.699
   39OL    H12R 1562   2.485   3.007   5.743
   39OL    H12S 1563   2.415   3.104   5.621
   39OL    C113 1564   2.326   2.911   5.632
   39OL    H13R 1565   2.261   2.853   5.700
   39OL    H13S 1566   2.411   2.848   5.613
   39OL    C114 1567   2.271   2.941   5.493
   39OL    H14R 1568   2.355   2.982   5.432
   39OL    H14S 1569   2.195   3.021   5.504
   39OL    C115 1570   2.208   2.823   5.417
   39OL    H15R 1571   2.133   2.773   5.482
   39OL    H15S 1572   2.279   2.742   5.392
   39OL    C116 1573   2.145   2.870   5.285
   39OL    H16R 1574   2.220   2.926   5.224
   39OL    H16S 1575   2.066   2.943   5.313
   39OL    C117 1576   2.080   2.757   5.204
   39OL    H17R 1577   1.986   2.796   5.161
   39OL    H17S 1578   2.061   2.673   5.273
   39OL    C118 1579   2.155   2.698   5.086
   39OL    H18R 1580   2.178   2.777   5.012
   39OL    H18S 1581   2.096   2.622   5.033
   39OL    H18T 1582   2.246   2.647   5.122
   40PA    C116 1583   2.433   1.148   5.254
   40PA    H16R 1584   2.351   1.220   5.234
   40PA    H16S 1585   2.480   1.119   5.158
   40PA    H16T 1586   2.510   1.199   5.316
   40PA    C115 1587   2.378   1.023   5.324
   40PA    H15R 1588   2.269   1.013   5.303
   40PA    H15S 1589   2.429   0.933   5.283
   40PA    C114 1590   2.398   1.018   5.475
   40PA    H14R 1591   2.362   1.109   5.526
   40PA    H14S 1592   2.343   0.931   5.518
   40PA    C113 1593   2.543   0.998   5.509
   40PA    H13R 1594   2.583   0.910   5.453
   40PA    H13S 1595   2.603   1.086   5.476
   40PA    C112 1596   2.551   0.974   5.659
   40PA    H12R 1597   2.495   1.046   5.720
   40PA    H12S 1598   2.525   0.868   5.681
   40PA    C111 1599   2.688   0.988   5.707
   40PA    H11R 1600   2.741   0.926   5.645
   40PA    H11S 1601   2.733   1.085   5.677
   40PA    C110 1602   2.720   0.909   5.835
   40PA    H10R 1603   2.819   0.961   5.833
   40PA    H10S 1604   2.666   0.951   5.920
   40PA     C19 1605   2.728   0.745   5.841
   40PA     H9R 1606   2.636   0.697   5.807
   40PA     H9S 1607   2.796   0.710   5.765
   40PA     C18 1608   2.805   0.658   5.954
   40PA     H8R 1609   2.869   0.585   5.905
   40PA     H8S 1610   2.901   0.662   6.011
   40PA     C17 1611   2.736   0.652   6.078
   40PA     H7R 1612   2.793   0.641   6.174
   40PA     H7S 1613   2.686   0.751   6.081
   40PA     C16 1614   2.664   0.532   6.030
   40PA     H6R 1615   2.589   0.556   5.954
   40PA     H6S 1616   2.731   0.464   5.976
   40PA     C15 1617   2.627   0.454   6.146
   40PA     H5R 1618   2.594   0.353   6.114
   40PA     H5S 1619   2.717   0.445   6.212
   40PA     C14 1620   2.520   0.531   6.209
   40PA     H4R 1621   2.538   0.641   6.209
   40PA     H4S 1622   2.427   0.512   6.152
   40PA     C13 1623   2.524   0.483   6.349
   40PA     H3R 1624   2.514   0.371   6.346
   40PA     H3S 1625   2.621   0.507   6.397
   40PA     C12 1626   2.412   0.552   6.419
   40PA     H2R 1627   2.407   0.661   6.412
   40PA     H2S 1628   2.325   0.519   6.361
   41PC     C11 1629   2.421   0.504   6.561
   41PC     O12 1630   2.475   0.400   6.593
   41PC     O11 1631   2.359   0.591   6.638
   41PC      C1 1632   2.358   0.564   6.778
   41PC      HR 1633   2.295   0.639   6.829
   41PC      HS 1634   2.315   0.463   6.802
   41PC      C2 1635   2.497   0.584   6.837
   41PC      HX 1636   2.566   0.517   6.784
   41PC      C3 1637   2.495   0.557   6.987
   41PC      HA 1638   2.433   0.468   7.010
   41PC      HB 1639   2.598   0.537   7.025
   41PC     O31 1640   2.433   0.668   7.047
   41PC     P31 1641   2.504   0.739   7.168
   41PC     O32 1642   2.407   0.863   7.188
   41PC     C31 1643   2.277   0.859   7.128
   41PC     H1A 1644   2.232   0.756   7.132
   41PC     H1B 1645   2.208   0.923   7.186
   41PC     C32 1646   2.281   0.905   6.979
   41PC     H2A 1647   2.342   0.831   6.927
   41PC     H2B 1648   2.179   0.894   6.944
   41PC     N31 1649   2.333   1.045   6.946
   41PC     C33 1650   2.483   1.046   6.947
   41PC     H3A 1651   2.523   0.986   7.029
   41PC     H3B 1652   2.520   1.002   6.856
   41PC     H3C 1653   2.523   1.146   6.953
   41PC     C34 1654   2.284   1.088   6.812
   41PC     H4A 1655   2.304   1.193   6.796
   41PC     H4B 1656   2.330   1.032   6.732
   41PC     H4C 1657   2.176   1.075   6.803
   41PC     C35 1658   2.286   1.145   7.047
   41PC     H5A 1659   2.306   1.105   7.147
   41PC     H5B 1660   2.179   1.162   7.037
   41PC     H5C 1661   2.337   1.239   7.033
   41PC     O33 1662   2.504   0.651   7.288
   41PC     O34 1663   2.634   0.791   7.120
   41PC     O21 1664   2.536   0.717   6.809
   41PC     C21 1665   2.664   0.727   6.798
   41PC     O22 1666   2.748   0.640   6.819
   42OL     C12 1667   2.683   0.857   6.722
   42OL     H2R 1668   2.779   0.891   6.758
   42OL     H2S 1669   2.618   0.936   6.757
   42OL     C13 1670   2.668   0.836   6.569
   42OL     H3R 1671   2.563   0.811   6.543
   42OL     H3S 1672   2.722   0.745   6.538
   42OL     C14 1673   2.711   0.960   6.489
   42OL     H4R 1674   2.808   1.000   6.522
   42OL     H4S 1675   2.649   1.045   6.522
   42OL     C15 1676   2.706   0.943   6.336
   42OL     H5R 1677   2.768   0.860   6.295
   42OL     H5S 1678   2.745   1.034   6.289
   42OL     C16 1679   2.564   0.936   6.284
   42OL     H6R 1680   2.513   0.846   6.323
   42OL     H6S 1681   2.568   0.931   6.173
   42OL     C17 1682   2.492   1.065   6.326
   42OL     H7R 1683   2.560   1.149   6.304
   42OL     H7S 1684   2.474   1.064   6.436
   42OL     C18 1685   2.365   1.097   6.249
   42OL     H8R 1686   2.386   1.078   6.142
   42OL     H8S 1687   2.346   1.206   6.262
   42OL     C19 1688   2.250   1.017   6.305
   42OL     H9R 1689   2.227   1.037   6.411
   42OL    C110 1690   2.175   0.928   6.237
   42OL    H10R 1691   2.090   0.882   6.290
   42OL    C111 1692   2.190   0.891   6.092
   42OL    H11R 1693   2.211   0.982   6.031
   42OL    H11S 1694   2.093   0.850   6.056
   42OL    C112 1695   2.301   0.789   6.059
   42OL    H12R 1696   2.271   0.687   6.089
   42OL    H12S 1697   2.393   0.815   6.117
   42OL    C113 1698   2.345   0.792   5.911
   42OL    H13R 1699   2.418   0.711   5.892
   42OL    H13S 1700   2.397   0.888   5.893
   42OL    C114 1701   2.232   0.785   5.807
   42OL    H14R 1702   2.258   0.844   5.716
   42OL    H14S 1703   2.138   0.830   5.847
   42OL    C115 1704   2.200   0.643   5.764
   42OL    H15R 1705   2.110   0.652   5.698
   42OL    H15S 1706   2.181   0.585   5.857
   42OL    C116 1707   2.303   0.562   5.686
   42OL    H16R 1708   2.259   0.462   5.661
   42OL    H16S 1709   2.392   0.545   5.749
   42OL    C117 1710   2.340   0.635   5.559
   42OL    H17R 1711   2.392   0.729   5.588
   42OL    H17S 1712   2.248   0.664   5.503
   42OL    C118 1713   2.433   0.556   5.469
   42OL    H18R 1714   2.448   0.623   5.385
   42OL    H18S 1715   2.390   0.461   5.431
   42OL    H18T 1716   2.532   0.539   5.514
   43PA    C116 1717   4.845   1.899   5.311
   43PA    H16R 1718   4.922   1.852   5.246
   43PA    H16S 1719   4.897   1.946   5.397
   43PA    H16T 1720   4.796   1.981   5.254
   43PA    C115 1721   4.741   1.798   5.359
   43PA    H15R 1722   4.655   1.854   5.401
   43PA    H15S 1723   4.704   1.740   5.271
   43PA    C114 1724   4.789   1.702   5.469
   43PA    H14R 1725   4.703   1.637   5.497
   43PA    H14S 1726   4.869   1.635   5.430
   43PA    C113 1727   4.842   1.776   5.593
   43PA    H13R 1728   4.939   1.823   5.568
   43PA    H13S 1729   4.771   1.856   5.623
   43PA    C112 1730   4.865   1.688   5.717
   43PA    H12R 1731   4.766   1.654   5.753
   43PA    H12S 1732   4.922   1.599   5.682
   43PA    C111 1733   4.944   1.766   5.825
   43PA    H11R 1734   5.050   1.764   5.789
   43PA    H11S 1735   4.908   1.871   5.827
   43PA    C110 1736   4.950   1.720   5.972
   43PA    H10R 1737   5.018   1.634   5.968
   43PA    H10S 1738   5.014   1.784   6.035
   43PA     C19 1739   4.817   1.700   6.051
   43PA     H9R 1740   4.744   1.628   6.007
   43PA     H9S 1741   4.843   1.659   6.152
   43PA     C18 1742   4.742   1.828   6.077
   43PA     H8R 1743   4.822   1.906   6.073
   43PA     H8S 1744   4.668   1.846   5.996
   43PA     C17 1745   4.678   1.833   6.216
   43PA     H7R 1746   4.753   1.804   6.293
   43PA     H7S 1747   4.651   1.938   6.235
   43PA     C16 1748   4.550   1.751   6.235
   43PA     H6R 1749   4.476   1.785   6.159
   43PA     H6S 1750   4.568   1.643   6.218
   43PA     C15 1751   4.491   1.775   6.375
   43PA     H5R 1752   4.498   1.884   6.395
   43PA     H5S 1753   4.383   1.747   6.378
   43PA     C14 1754   4.567   1.703   6.488
   43PA     H4R 1755   4.673   1.734   6.477
   43PA     H4S 1756   4.533   1.743   6.587
   43PA     C13 1757   4.555   1.550   6.490
   43PA     H3R 1758   4.449   1.520   6.507
   43PA     H3S 1759   4.586   1.508   6.391
   43PA     C12 1760   4.640   1.483   6.600
   43PA     H2R 1761   4.588   1.492   6.697
   43PA     H2S 1762   4.653   1.375   6.575
   44PC     C11 1763   4.777   1.550   6.614
   44PC     O12 1764   4.848   1.586   6.522
   44PC     O11 1765   4.810   1.563   6.743
   44PC      C1 1766   4.929   1.645   6.765
   44PC      HR 1767   4.981   1.600   6.852
   44PC      HS 1768   5.001   1.646   6.680
   44PC      C2 1769   4.902   1.793   6.806
   44PC      HX 1770   5.001   1.844   6.814
   44PC      C3 1771   4.833   1.798   6.945
   44PC      HA 1772   4.887   1.729   7.013
   44PC      HB 1773   4.841   1.900   6.989
   44PC     O31 1774   4.696   1.763   6.927
   44PC     P31 1775   4.605   1.713   7.045
   44PC     O32 1776   4.463   1.770   7.002
   44PC     C31 1777   4.451   1.883   6.916
   44PC     H1A 1778   4.514   1.874   6.825
   44PC     H1B 1779   4.346   1.889   6.878
   44PC     C32 1780   4.488   2.015   6.990
   44PC     H2A 1781   4.590   2.001   7.025
   44PC     H2B 1782   4.490   2.094   6.917
   44PC     N31 1783   4.400   2.058   7.107
   44PC     C33 1784   4.410   1.956   7.218
   44PC     H3A 1785   4.357   1.987   7.306
   44PC     H3B 1786   4.373   1.859   7.183
   44PC     H3C 1787   4.514   1.934   7.243
   44PC     C34 1788   4.445   2.189   7.162
   44PC     H4A 1789   4.550   2.189   7.189
   44PC     H4B 1790   4.431   2.272   7.093
   44PC     H4C 1791   4.392   2.214   7.254
   44PC     C35 1792   4.258   2.066   7.060
   44PC     H5A 1793   4.248   2.143   6.985
   44PC     H5B 1794   4.190   2.087   7.141
   44PC     H5C 1795   4.231   1.971   7.015
   44PC     O33 1796   4.605   1.565   7.045
   44PC     O34 1797   4.646   1.782   7.170
   44PC     O21 1798   4.825   1.857   6.703
   44PC     C21 1799   4.793   1.983   6.722
   44PC     O22 1800   4.831   2.056   6.812
   45OL     C12 1801   4.710   2.030   6.605
   45OL     H2R 1802   4.612   1.981   6.603
   45OL     H2S 1803   4.764   1.989   6.517
   45OL     C13 1804   4.690   2.184   6.606
   45OL     H3R 1805   4.677   2.229   6.706
   45OL     H3S 1806   4.604   2.213   6.542
   45OL     C14 1807   4.804   2.254   6.542
   45OL     H4R 1808   4.900   2.218   6.589
   45OL     H4S 1809   4.804   2.364   6.551
   45OL     C15 1810   4.794   2.224   6.395
   45OL     H5R 1811   4.813   2.115   6.387
   45OL     H5S 1812   4.867   2.293   6.348
   45OL     C16 1813   4.674   2.218   6.302
   45OL     H6R 1814   4.639   2.324   6.305
   45OL     H6S 1815   4.605   2.142   6.342
   45OL     C17 1816   4.720   2.169   6.160
   45OL     H7R 1817   4.786   2.088   6.131
   45OL     H7S 1818   4.790   2.240   6.185
   45OL     C18 1819   4.660   2.185   6.022
   45OL     H8R 1820   4.607   2.089   6.015
   45OL     H8S 1821   4.728   2.183   5.935
   45OL     C19 1822   4.577   2.305   6.024
   45OL     H9R 1823   4.610   2.400   5.979
   45OL    C110 1824   4.468   2.297   6.092
   45OL    H10R 1825   4.415   2.390   6.094
   45OL    C111 1826   4.415   2.179   6.170
   45OL    H11R 1827   4.379   2.211   6.270
   45OL    H11S 1828   4.489   2.099   6.190
   45OL    C112 1829   4.310   2.108   6.087
   45OL    H12R 1830   4.230   2.177   6.059
   45OL    H12S 1831   4.262   2.029   6.149
   45OL    C113 1832   4.364   2.046   5.958
   45OL    H13R 1833   4.449   1.979   5.986
   45OL    H13S 1834   4.403   2.123   5.888
   45OL    C114 1835   4.257   1.961   5.891
   45OL    H14R 1836   4.208   1.905   5.974
   45OL    H14S 1837   4.304   1.889   5.821
   45OL    C115 1838   4.148   2.043   5.823
   45OL    H15R 1839   4.100   2.096   5.906
   45OL    H15S 1840   4.074   1.973   5.776
   45OL    C116 1841   4.196   2.144   5.718
   45OL    H16R 1842   4.250   2.228   5.767
   45OL    H16S 1843   4.111   2.193   5.668
   45OL    C117 1844   4.278   2.079   5.609
   45OL    H17R 1845   4.223   1.988   5.573
   45OL    H17S 1846   4.374   2.046   5.654
   45OL    C118 1847   4.305   2.171   5.490
   45OL    H18R 1848   4.215   2.178   5.425
   45OL    H18S 1849   4.391   2.135   5.430
   45OL    H18T 1850   4.328   2.273   5.528
   46PA    C116 1851   3.377   0.806   5.207
   46PA    H16R 1852   3.307   0.885   5.174
   46PA    H16S 1853   3.313   0.717   5.227
   46PA    H16T 1854   3.443   0.788   5.120
   46PA    C115 1855   3.456   0.845   5.332
   46PA    H15R 1856   3.507   0.942   5.311
   46PA    H15S 1857   3.383   0.863   5.414
   46PA    C114 1858   3.564   0.749   5.386
   46PA    H14R 1859   3.636   0.731   5.303
   46PA    H14S 1860   3.617   0.800   5.469
   46PA    C113 1861   3.520   0.613   5.442
   46PA    H13R 1862   3.489   0.560   5.357
   46PA    H13S 1863   3.602   0.548   5.477
   46PA    C112 1864   3.383   0.592   5.503
   46PA    H12R 1865   3.305   0.616   5.427
   46PA    H12S 1866   3.372   0.485   5.531
   46PA    C111 1867   3.356   0.671   5.626
   46PA    H11R 1868   3.395   0.775   5.615
   46PA    H11S 1869   3.246   0.675   5.630
   46PA    C110 1870   3.409   0.600   5.749
   46PA    H10R 1871   3.346   0.510   5.771
   46PA    H10S 1872   3.512   0.566   5.728
   46PA     C19 1873   3.410   0.698   5.865
   46PA     H9R 1874   3.464   0.789   5.830
   46PA     H9S 1875   3.307   0.728   5.890
   46PA     C18 1876   3.478   0.644   5.991
   46PA     H8R 1877   3.575   0.597   5.964
   46PA     H8S 1878   3.500   0.733   6.055
   46PA     C17 1879   3.390   0.547   6.070
   46PA     H7R 1880   3.283   0.569   6.047
   46PA     H7S 1881   3.409   0.443   6.036
   46PA     C16 1882   3.404   0.557   6.222
   46PA     H6R 1883   3.352   0.651   6.254
   46PA     H6S 1884   3.350   0.472   6.269
   46PA     C15 1885   3.548   0.562   6.276
   46PA     H5R 1886   3.610   0.480   6.234
   46PA     H5S 1887   3.595   0.659   6.245
   46PA     C14 1888   3.551   0.557   6.430
   46PA     H4R 1889   3.497   0.467   6.465
   46PA     H4S 1890   3.656   0.549   6.464
   46PA     C13 1891   3.487   0.684   6.488
   46PA     H3R 1892   3.534   0.770   6.433
   46PA     H3S 1893   3.378   0.686   6.466
   46PA     C12 1894   3.512   0.703   6.639
   46PA     H2R 1895   3.441   0.642   6.698
   46PA     H2S 1896   3.616   0.674   6.664
   47PC     C11 1897   3.499   0.851   6.677
   47PC     O12 1898   3.581   0.936   6.648
   47PC     O11 1899   3.384   0.870   6.733
   47PC      C1 1900   3.344   1.010   6.738
   47PC      HR 1901   3.415   1.074   6.795
   47PC      HS 1902   3.335   1.050   6.634
   47PC      C2 1903   3.206   1.017   6.804
   47PC      HX 1904   3.160   1.115   6.776
   47PC      C3 1905   3.215   1.012   6.959
   47PC      HA 1906   3.288   1.091   6.988
   47PC      HB 1907   3.115   1.040   7.000
   47PC     O31 1908   3.253   0.882   7.008
   47PC     P31 1909   3.310   0.878   7.157
   47PC     O32 1910   3.322   0.722   7.174
   47PC     C31 1911   3.411   0.650   7.091
   47PC     H1A 1912   3.498   0.710   7.055
   47PC     H1B 1913   3.451   0.567   7.152
   47PC     C32 1914   3.337   0.594   6.971
   47PC     H2A 1915   3.322   0.672   6.896
   47PC     H2B 1916   3.404   0.520   6.925
   47PC     N31 1917   3.204   0.532   7.004
   47PC     C33 1918   3.092   0.619   7.038
   47PC     H3A 1919   3.078   0.691   6.958
   47PC     H3B 1920   3.002   0.558   7.043
   47PC     H3C 1921   3.115   0.670   7.129
   47PC     C34 1922   3.156   0.490   6.880
   47PC     H4A 1923   3.242   0.438   6.839
   47PC     H4B 1924   3.081   0.411   6.881
   47PC     H4C 1925   3.129   0.564   6.806
   47PC     C35 1926   3.219   0.427   7.109
   47PC     H5A 1927   3.253   0.469   7.203
   47PC     H5B 1928   3.289   0.351   7.076
   47PC     H5C 1929   3.124   0.376   7.126
   47PC     O33 1930   3.447   0.932   7.170
   47PC     O34 1931   3.204   0.920   7.251
   47PC     O21 1932   3.135   0.904   6.755
   47PC     C21 1933   3.015   0.922   6.719
   47PC     O22 1934   2.951   1.026   6.733
   48OL     C12 1935   2.978   0.789   6.650
   48OL     H2R 1936   2.884   0.748   6.681
   48OL     H2S 1937   3.045   0.709   6.685
   48OL     C13 1938   2.970   0.802   6.499
   48OL     H3R 1939   2.952   0.905   6.463
   48OL     H3S 1940   2.895   0.733   6.453
   48OL     C14 1941   3.100   0.774   6.437
   48OL     H4R 1942   3.124   0.669   6.450
   48OL     H4S 1943   3.175   0.837   6.489
   48OL     C15 1944   3.084   0.806   6.290
   48OL     H5R 1945   2.975   0.823   6.267
   48OL     H5S 1946   3.113   0.717   6.230
   48OL     C16 1947   3.168   0.927   6.256
   48OL     H6R 1948   3.256   0.932   6.322
   48OL     H6S 1949   3.108   1.020   6.275
   48OL     C17 1950   3.234   0.917   6.118
   48OL     H7R 1951   3.271   0.816   6.091
   48OL     H7S 1952   3.306   1.000   6.102
   48OL     C18 1953   3.137   0.956   6.009
   48OL     H8R 1954   3.179   0.990   5.916
   48OL     H8S 1955   3.082   1.017   6.075
   48OL     C19 1956   3.042   0.855   6.005
   48OL     H9R 1957   2.948   0.872   6.077
   48OL    C110 1958   2.994   0.821   5.878
   48OL    H10R 1959   2.914   0.830   5.892
   48OL    C111 1960   3.077   0.807   5.747
   48OL    H11R 1961   3.150   0.745   5.772
   48OL    H11S 1962   3.112   0.907   5.709
   48OL    C112 1963   2.991   0.724   5.633
   48OL    H12R 1964   2.965   0.625   5.676
   48OL    H12S 1965   3.066   0.705   5.554
   48OL    C113 1966   2.864   0.757   5.546
   48OL    H13R 1967   2.764   0.753   5.592
   48OL    H13S 1968   2.842   0.683   5.467
   48OL    C114 1969   2.880   0.890   5.482
   48OL    H14R 1970   2.924   0.956   5.560
   48OL    H14S 1971   2.785   0.942   5.456
   48OL    C115 1972   2.955   0.865   5.358
   48OL    H15R 1973   2.908   0.788   5.298
   48OL    H15S 1974   3.059   0.839   5.392
   48OL    C116 1975   2.954   0.994   5.294
   48OL    H16R 1976   2.853   1.046   5.307
   48OL    H16S 1977   2.967   0.996   5.184
   48OL    C117 1978   3.062   1.054   5.388
   48OL    H17R 1979   3.036   1.088   5.487
   48OL    H17S 1980   3.022   1.126   5.328
   48OL    C118 1981   3.214   1.058   5.383
   48OL    H18R 1982   3.259   1.160   5.382
   48OL    H18S 1983   3.243   1.009   5.292
   48OL    H18T 1984   3.258   1.012   5.473
   49PA    C116 1985   2.082   4.381   5.107
   49PA    H16R 1986   2.019   4.350   5.024
   49PA    H16S 1987   2.054   4.488   5.114
   49PA    H16T 1988   2.044   4.334   5.197
   49PA    C115 1989   2.230   4.339   5.088
   49PA    H15R 1990   2.254   4.232   5.086
   49PA    H15S 1991   2.281   4.369   4.997
   49PA    C114 1992   2.295   4.408   5.196
   49PA    H14R 1993   2.399   4.427   5.184
   49PA    H14S 1994   2.267   4.511   5.166
   49PA    C113 1995   2.249   4.336   5.324
   49PA    H13R 1996   2.145   4.362   5.349
   49PA    H13S 1997   2.256   4.227   5.296
   49PA    C112 1998   2.328   4.353   5.452
   49PA    H12R 1999   2.428   4.336   5.421
   49PA    H12S 2000   2.318   4.447   5.506
   49PA    C111 2001   2.299   4.265   5.568
   49PA    H11R 2002   2.337   4.164   5.544
   49PA    H11S 2003   2.357   4.306   5.655
   49PA    C110 2004   2.150   4.270   5.599
   49PA    H10R 2005   2.113   4.373   5.620
   49PA    H10S 2006   2.096   4.233   5.509
   49PA     C19 2007   2.126   4.177   5.716
   49PA     H9R 2008   2.021   4.141   5.714
   49PA     H9S 2009   2.193   4.089   5.701
   49PA     C18 2010   2.156   4.243   5.851
   49PA     H8R 2011   2.259   4.287   5.850
   49PA     H8S 2012   2.085   4.327   5.866
   49PA     C17 2013   2.150   4.144   5.968
   49PA     H7R 2014   2.210   4.054   5.943
   49PA     H7S 2015   2.200   4.194   6.054
   49PA     C16 2016   2.009   4.103   6.011
   49PA     H6R 2017   1.944   4.193   6.014
   49PA     H6S 2018   1.965   4.034   5.935
   49PA     C15 2019   2.010   4.034   6.150
   49PA     H5R 2020   1.908   4.000   6.172
   49PA     H5S 2021   2.073   3.943   6.145
   49PA     C14 2022   2.056   4.125   6.266
   49PA     H4R 2023   2.166   4.138   6.262
   49PA     H4S 2024   2.010   4.225   6.250
   49PA     C13 2025   2.016   4.080   6.408
   49PA     H3R 2026   2.050   4.155   6.482
   49PA     H3S 2027   1.908   4.093   6.412
   49PA     C12 2028   2.064   3.938   6.449
   49PA     H2R 2029   2.016   3.859   6.387
   49PA     H2S 2030   2.173   3.931   6.436
   50PC     C11 2031   2.037   3.903   6.597
   50PC     O12 2032   1.973   3.971   6.675
   50PC     O11 2033   2.092   3.784   6.629
   50PC      C1 2034   2.100   3.760   6.772
   50PC      HR 2035   2.058   3.840   6.837
   50PC      HS 2036   2.056   3.663   6.800
   50PC      C2 2037   2.247   3.759   6.811
   50PC      HX 2038   2.287   3.663   6.768
   50PC      C3 2039   2.282   3.759   6.960
   50PC      HA 2040   2.219   3.685   7.014
   50PC      HB 2041   2.389   3.729   6.972
   50PC     O31 2042   2.273   3.892   7.008
   50PC     P31 2043   2.167   3.931   7.115
   50PC     O32 2044   2.172   4.090   7.098
   50PC     C31 2045   2.182   4.154   6.970
   50PC     H1A 2046   2.144   4.088   6.888
   50PC     H1B 2047   2.115   4.242   6.970
   50PC     C32 2048   2.328   4.196   6.932
   50PC     H2A 2049   2.382   4.105   6.915
   50PC     H2B 2050   2.319   4.247   6.836
   50PC     N31 2051   2.412   4.285   7.024
   50PC     C33 2052   2.435   4.221   7.156
   50PC     H3A 2053   2.500   4.135   7.149
   50PC     H3B 2054   2.472   4.290   7.230
   50PC     H3C 2055   2.340   4.180   7.193
   50PC     C34 2056   2.531   4.341   6.956
   50PC     H4A 2057   2.601   4.265   6.925
   50PC     H4B 2058   2.499   4.396   6.868
   50PC     H4C 2059   2.582   4.413   7.019
   50PC     C35 2060   2.332   4.400   7.057
   50PC     H5A 2061   2.298   4.448   6.967
   50PC     H5B 2062   2.382   4.478   7.113
   50PC     H5C 2063   2.245   4.363   7.110
   50PC     O33 2064   2.032   3.881   7.076
   50PC     O34 2065   2.215   3.893   7.247
   50PC     O21 2066   2.297   3.880   6.757
   50PC     C21 2067   2.414   3.861   6.715
   50PC     O22 2068   2.461   3.754   6.682
   51OL     C12 2069   2.470   3.999   6.707
   51OL     H2R 2070   2.490   4.046   6.804
   51OL     H2S 2071   2.407   4.060   6.637
   51OL     C13 2072   2.597   4.000   6.642
   51OL     H3R 2073   2.681   3.957   6.701
   51OL     H3S 2074   2.614   4.104   6.620
   51OL     C14 2075   2.588   3.945   6.508
   51OL     H4R 2076   2.584   3.838   6.534
   51OL     H4S 2077   2.691   3.973   6.478
   51OL     C15 2078   2.470   3.946   6.409
   51OL     H5R 2079   2.382   3.893   6.447
   51OL     H5S 2080   2.504   3.866   6.346
   51OL     C16 2081   2.442   4.057   6.303
   51OL     H6R 2082   2.440   4.148   6.367
   51OL     H6S 2083   2.345   4.035   6.258
   51OL     C17 2084   2.547   4.066   6.187
   51OL     H7R 2085   2.631   4.071   6.254
   51OL     H7S 2086   2.598   3.978   6.167
   51OL     C18 2087   2.541   4.078   6.024
   51OL     H8R 2088   2.501   4.176   5.989
   51OL     H8S 2089   2.463   4.003   5.998
   51OL     C19 2090   2.676   4.051   5.948
   51OL     H9R 2091   2.752   4.000   6.011
   51OL    C110 2092   2.715   4.014   5.828
   51OL    H10R 2093   2.819   3.974   5.815
   51OL    C111 2094   2.617   3.998   5.718
   51OL    H11R 2095   2.679   4.006   5.627
   51OL    H11S 2096   2.549   4.084   5.726
   51OL    C112 2097   2.523   3.877   5.688
   51OL    H12R 2098   2.569   3.781   5.668
   51OL    H12S 2099   2.489   3.900   5.585
   51OL    C113 2100   2.393   3.867   5.768
   51OL    H13R 2101   2.352   3.967   5.783
   51OL    H13S 2102   2.395   3.818   5.867
   51OL    C114 2103   2.298   3.771   5.701
   51OL    H14R 2104   2.364   3.685   5.726
   51OL    H14S 2105   2.311   3.766   5.593
   51OL    C115 2106   2.148   3.778   5.759
   51OL    H15R 2107   2.109   3.877   5.734
   51OL    H15S 2108   2.157   3.783   5.868
   51OL    C116 2109   2.027   3.681   5.725
   51OL    H16R 2110   1.937   3.695   5.788
   51OL    H16S 2111   2.000   3.578   5.702
   51OL    C117 2112   2.029   3.673   5.581
   51OL    H17R 2113   2.128   3.709   5.556
   51OL    H17S 2114   2.061   3.585   5.521
   51OL    C118 2115   1.929   3.775   5.556
   51OL    H18R 2116   1.886   3.767   5.457
   51OL    H18S 2117   1.993   3.866   5.569
   51OL    H18T 2118   1.850   3.782   5.633
   52PA    C116 2119   3.733   4.196   5.352
   52PA    H16R 2120   3.811   4.266   5.384
   52PA    H16S 2121   3.713   4.219   5.245
   52PA    H16T 2122   3.774   4.095   5.353
   52PA    C115 2123   3.607   4.200   5.440
   52PA    H15R 2124   3.551   4.293   5.418
   52PA    H15S 2125   3.542   4.112   5.416
   52PA    C114 2126   3.626   4.178   5.589
   52PA    H14R 2127   3.528   4.165   5.639
   52PA    H14S 2128   3.679   4.083   5.602
   52PA    C113 2129   3.713   4.282   5.655
   52PA    H13R 2130   3.730   4.246   5.759
   52PA    H13S 2131   3.811   4.283   5.602
   52PA    C112 2132   3.656   4.424   5.661
   52PA    H12R 2133   3.617   4.457   5.562
   52PA    H12S 2134   3.571   4.426   5.732
   52PA    C111 2135   3.763   4.524   5.708
   52PA    H11R 2136   3.841   4.534   5.628
   52PA    H11S 2137   3.717   4.624   5.722
   52PA    C110 2138   3.836   4.482   5.836
   52PA    H10R 2139   3.893   4.388   5.818
   52PA    H10S 2140   3.911   4.560   5.859
   52PA     C19 2141   3.743   4.461   5.957
   52PA     H9R 2142   3.683   4.554   5.973
   52PA     H9S 2143   3.672   4.378   5.939
   52PA     C18 2144   3.821   4.436   6.087
   52PA     H8R 2145   3.895   4.518   6.101
   52PA     H8S 2146   3.750   4.437   6.172
   52PA     C17 2147   3.897   4.303   6.092
   52PA     H7R 2148   3.826   4.219   6.071
   52PA     H7S 2149   3.973   4.299   6.011
   52PA     C16 2150   3.966   4.279   6.228
   52PA     H6R 2151   4.000   4.176   6.211
   52PA     H6S 2152   4.057   4.343   6.236
   52PA     C15 2153   3.875   4.297   6.354
   52PA     H5R 2154   3.859   4.406   6.371
   52PA     H5S 2155   3.777   4.251   6.326
   52PA     C14 2156   3.905   4.235   6.494
   52PA     H4R 2157   3.816   4.235   6.560
   52PA     H4S 2158   3.915   4.130   6.480
   52PA     C13 2159   4.017   4.296   6.577
   52PA     H3R 2160   4.099   4.329   6.511
   52PA     H3S 2161   3.976   4.393   6.613
   52PA     C12 2162   4.063   4.211   6.703
   52PA     H2R 2163   3.988   4.152   6.756
   52PA     H2S 2164   4.154   4.151   6.677
   53PC     C11 2165   4.123   4.314   6.787
   53PC     O12 2166   4.192   4.386   6.721
   53PC     O11 2167   4.117   4.325   6.919
   53PC      C1 2168   4.186   4.452   6.958
   53PC      HR 2169   4.193   4.450   7.068
   53PC      HS 2170   4.292   4.465   6.950
   53PC      C2 2171   4.144   4.594   6.897
   53PC      HX 2172   4.218   4.666   6.937
   53PC      C3 2173   4.007   4.597   6.957
   53PC      HA 2174   4.025   4.569   7.063
   53PC      HB 2175   3.963   4.698   6.951
   53PC     O31 2176   3.930   4.493   6.900
   53PC     P31 2177   3.786   4.502   6.843
   53PC     O32 2178   3.705   4.454   6.970
   53PC     C31 2179   3.755   4.351   7.055
   53PC     H1A 2180   3.671   4.286   7.086
   53PC     H1B 2181   3.828   4.283   7.004
   53PC     C32 2182   3.823   4.412   7.180
   53PC     H2A 2183   3.857   4.330   7.240
   53PC     H2B 2184   3.912   4.460   7.141
   53PC     N31 2185   3.744   4.511   7.264
   53PC     C33 2186   3.737   4.642   7.191
   53PC     H3A 2187   3.693   4.627   7.092
   53PC     H3B 2188   3.680   4.716   7.246
   53PC     H3C 2189   3.835   4.681   7.174
   53PC     C34 2190   3.602   4.467   7.282
   53PC     H4A 2191   3.547   4.539   7.342
   53PC     H4B 2192   3.554   4.464   7.184
   53PC     H4C 2193   3.596   4.370   7.326
   53PC     C35 2194   3.805   4.532   7.398
   53PC     H5A 2195   3.900   4.584   7.391
   53PC     H5B 2196   3.823   4.439   7.448
   53PC     H5C 2197   3.740   4.591   7.462
   53PC     O33 2198   3.758   4.645   6.822
   53PC     O34 2199   3.771   4.404   6.732
   53PC     O21 2200   4.144   4.607   6.752
   53PC     C21 2201   4.110   4.721   6.700
   53PC     O22 2202   4.100   4.824   6.766
   54OL     C12 2203   4.080   4.715   6.551
   54OL     H2R 2204   4.014   4.628   6.529
   54OL     H2S 2205   4.174   4.706   6.492
   54OL     C13 2206   4.007   4.848   6.520
   54OL     H3R 2207   4.073   4.932   6.550
   54OL     H3S 2208   3.914   4.853   6.582
   54OL     C14 2209   3.970   4.871   6.374
   54OL     H4R 2210   3.936   4.978   6.367
   54OL     H4S 2211   3.884   4.809   6.341
   54OL     C15 2212   4.087   4.847   6.278
   54OL     H5R 2213   4.116   4.740   6.272
   54OL     H5S 2214   4.176   4.894   6.322
   54OL     C16 2215   4.050   4.902   6.139
   54OL     H6R 2216   3.992   4.997   6.149
   54OL     H6S 2217   3.984   4.828   6.089
   54OL     C17 2218   4.166   4.935   6.046
   54OL     H7R 2219   4.220   5.026   6.077
   54OL     H7S 2220   4.127   4.960   5.945
   54OL     C18 2221   4.269   4.825   6.036
   54OL     H8R 2222   4.331   4.803   6.125
   54OL     H8S 2223   4.333   4.872   5.962
   54OL     C19 2224   4.209   4.702   5.981
   54OL     H9R 2225   4.176   4.628   6.056
   54OL    C110 2226   4.200   4.677   5.850
   54OL    H10R 2227   4.159   4.580   5.820
   54OL    C111 2228   4.250   4.766   5.738
   54OL    H11R 2229   4.341   4.823   5.763
   54OL    H11S 2230   4.174   4.838   5.701
   54OL    C112 2231   4.287   4.681   5.618
   54OL    H12R 2232   4.342   4.595   5.656
   54OL    H12S 2233   4.356   4.731   5.548
   54OL    C113 2234   4.157   4.647   5.547
   54OL    H13R 2235   4.116   4.736   5.498
   54OL    H13S 2236   4.088   4.606   5.625
   54OL    C114 2237   4.158   4.533   5.450
   54OL    H14R 2238   4.056   4.522   5.410
   54OL    H14S 2239   4.194   4.458   5.526
   54OL    C115 2240   4.262   4.524   5.342
   54OL    H15R 2241   4.341   4.474   5.376
   54OL    H15S 2242   4.314   4.604   5.388
   54OL    C116 2243   4.280   4.465   5.197
   54OL    H16R 2244   4.204   4.508   5.127
   54OL    H16S 2245   4.267   4.356   5.195
   54OL    C117 2246   4.420   4.481   5.121
   54OL    H17R 2247   4.444   4.581   5.096
   54OL    H17S 2248   4.391   4.452   5.033
   54OL    C118 2249   4.563   4.421   5.130
   54OL    H18R 2250   4.554   4.316   5.154
   54OL    H18S 2251   4.630   4.479   5.197
   54OL    H18T 2252   4.624   4.425   5.041
   55PA    C116 2253   4.840   3.264   4.907
   55PA    H16R 2254   4.780   3.224   4.819
   55PA    H16S 2255   4.912   3.191   4.943
   55PA    H16T 2256   4.905   3.345   4.874
   55PA    C115 2257   4.724   3.289   4.984
   55PA    H15R 2258   4.746   3.328   5.085
   55PA    H15S 2259   4.655   3.356   4.931
   55PA    C114 2260   4.645   3.163   4.976
   55PA    H14R 2261   4.578   3.216   5.035
   55PA    H14S 2262   4.593   3.132   4.881
   55PA    C113 2263   4.646   3.077   5.095
   55PA    H13R 2264   4.652   2.985   5.038
   55PA    H13S 2265   4.727   3.108   5.164
   55PA    C112 2266   4.525   3.018   5.156
   55PA    H12R 2267   4.452   2.989   5.078
   55PA    H12S 2268   4.555   2.921   5.197
   55PA    C111 2269   4.462   3.099   5.263
   55PA    H11R 2270   4.387   3.164   5.222
   55PA    H11S 2271   4.410   3.016   5.309
   55PA    C110 2272   4.542   3.174   5.369
   55PA    H10R 2273   4.631   3.231   5.334
   55PA    H10S 2274   4.474   3.239   5.426
   55PA     C19 2275   4.574   3.081   5.474
   55PA     H9R 2276   4.482   3.057   5.532
   55PA     H9S 2277   4.586   2.995   5.414
   55PA     C18 2278   4.697   3.112   5.554
   55PA     H8R 2279   4.735   3.027   5.616
   55PA     H8S 2280   4.782   3.142   5.491
   55PA     C17 2281   4.655   3.216   5.653
   55PA     H7R 2282   4.609   3.301   5.600
   55PA     H7S 2283   4.577   3.172   5.720
   55PA     C16 2284   4.782   3.253   5.725
   55PA     H6R 2285   4.829   3.160   5.764
   55PA     H6S 2286   4.850   3.304   5.654
   55PA     C15 2287   4.757   3.340   5.844
   55PA     H5R 2288   4.851   3.372   5.893
   55PA     H5S 2289   4.716   3.433   5.800
   55PA     C14 2290   4.669   3.264   5.943
   55PA     H4R 2291   4.564   3.265   5.906
   55PA     H4S 2292   4.696   3.157   5.949
   55PA     C13 2293   4.683   3.326   6.080
   55PA     H3R 2294   4.786   3.323   6.120
   55PA     H3S 2295   4.667   3.429   6.047
   55PA     C12 2296   4.588   3.268   6.188
   55PA     H2R 2297   4.481   3.288   6.164
   55PA     H2S 2298   4.612   3.162   6.191
   56PC     C11 2299   4.614   3.308   6.333
   56PC     O12 2300   4.696   3.391   6.367
   56PC     O11 2301   4.535   3.241   6.415
   56PC      C1 2302   4.565   3.267   6.553
   56PC      HR 2303   4.596   3.371   6.573
   56PC      HS 2304   4.474   3.258   6.611
   56PC      C2 2305   4.674   3.170   6.601
   56PC      HX 2306   4.630   3.067   6.602
   56PC      C3 2307   4.723   3.209   6.741
   56PC      HA 2308   4.631   3.234   6.791
   56PC      HB 2309   4.773   3.122   6.790
   56PC     O31 2310   4.797   3.329   6.747
   56PC     P31 2311   4.915   3.352   6.851
   56PC     O32 2312   4.870   3.282   6.985
   56PC     C31 2313   4.760   3.324   7.063
   56PC     H1A 2314   4.672   3.354   7.000
   56PC     H1B 2315   4.735   3.239   7.129
   56PC     C32 2316   4.780   3.432   7.168
   56PC     H2A 2317   4.798   3.525   7.116
   56PC     H2B 2318   4.686   3.435   7.223
   56PC     N31 2319   4.888   3.409   7.269
   56PC     C33 2320   5.021   3.428   7.202
   56PC     H3A 2321   5.025   3.522   7.149
   56PC     H3B 2322   5.104   3.417   7.271
   56PC     H3C 2323   5.034   3.352   7.124
   56PC     C34 2324   4.867   3.509   7.377
   56PC     H4A 2325   4.859   3.608   7.335
   56PC     H4B 2326   4.775   3.483   7.431
   56PC     H4C 2327   4.949   3.506   7.449
   56PC     C35 2328   4.883   3.270   7.326
   56PC     H5A 2329   4.793   3.245   7.379
   56PC     H5B 2330   4.967   3.254   7.394
   56PC     H5C 2331   4.895   3.199   7.244
   56PC     O33 2332   5.037   3.283   6.806
   56PC     O34 2333   4.922   3.497   6.883
   56PC     O21 2334   4.776   3.180   6.506
   56PC     C21 2335   4.842   3.078   6.469
   56PC     O22 2336   4.848   2.971   6.527
   57OL     C12 2337   4.902   3.126   6.334
   57OL     H2R 2338   5.009   3.151   6.342
   57OL     H2S 2339   4.857   3.220   6.299
   57OL     C13 2340   4.917   3.018   6.236
   57OL     H3R 2341   4.827   2.956   6.230
   57OL     H3S 2342   4.996   2.960   6.289
   57OL     C14 2343   4.959   3.067   6.097
   57OL     H4R 2344   4.877   3.122   6.050
   57OL     H4S 2345   4.984   2.988   6.023
   57OL     C15 2346   5.086   3.144   6.092
   57OL     H5R 2347   5.156   3.110   6.174
   57OL     H5S 2348   5.057   3.249   6.103
   57OL     C16 2349   5.156   3.129   5.958
   57OL     H6R 2350   5.163   3.026   5.929
   57OL     H6S 2351   5.260   3.156   5.978
   57OL     C17 2352   5.089   3.192   5.837
   57OL     H7R 2353   5.036   3.282   5.872
   57OL     H7S 2354   5.016   3.113   5.812
   57OL     C18 2355   5.173   3.216   5.707
   57OL     H8R 2356   5.107   3.203   5.621
   57OL     H8S 2357   5.250   3.138   5.710
   57OL     C19 2358   5.255   3.337   5.682
   57OL     H9R 2359   5.360   3.317   5.702
   57OL    C110 2360   5.217   3.462   5.654
   57OL    H10R 2361   5.290   3.544   5.654
   57OL    C111 2362   5.081   3.516   5.641
   57OL    H11R 2363   5.055   3.589   5.720
   57OL    H11S 2364   5.009   3.432   5.638
   57OL    C112 2365   5.093   3.585   5.507
   57OL    H12R 2366   5.159   3.676   5.512
   57OL    H12S 2367   4.993   3.619   5.474
   57OL    C113 2368   5.150   3.497   5.396
   57OL    H13R 2369   5.084   3.409   5.376
   57OL    H13S 2370   5.249   3.465   5.419
   57OL    C114 2371   5.161   3.590   5.282
   57OL    H14R 2372   5.203   3.690   5.305
   57OL    H14S 2373   5.051   3.576   5.265
   57OL    C115 2374   5.211   3.554   5.150
   57OL    H15R 2375   5.125   3.498   5.106
   57OL    H15S 2376   5.293   3.503   5.203
   57OL    C116 2377   5.275   3.632   5.036
   57OL    H16R 2378   5.353   3.581   4.976
   57OL    H16S 2379   5.326   3.719   5.078
   57OL    C117 2380   5.185   3.655   4.916
   57OL    H17R 2381   5.079   3.653   4.943
   57OL    H17S 2382   5.189   3.577   4.837
   57OL    C118 2383   5.234   3.790   4.870
   57OL    H18R 2384   5.170   3.833   4.796
   57OL    H18S 2385   5.334   3.782   4.823
   57OL    H18T 2386   5.237   3.861   4.955
   58PA    C116 2387   1.422   3.614   5.182
   58PA    H16R 2388   1.491   3.528   5.170
   58PA    H16S 2389   1.482   3.707   5.196
   58PA    H16T 2390   1.365   3.624   5.088
   58PA    C115 2391   1.328   3.589   5.300
   58PA    H15R 2392   1.255   3.673   5.307
   58PA    H15S 2393   1.270   3.496   5.278
   58PA    C114 2394   1.398   3.572   5.435
   58PA    H14R 2395   1.468   3.485   5.431
   58PA    H14S 2396   1.458   3.663   5.456
   58PA    C113 2397   1.300   3.552   5.552
   58PA    H13R 2398   1.246   3.649   5.566
   58PA    H13S 2399   1.223   3.475   5.529
   58PA    C112 2400   1.371   3.516   5.684
   58PA    H12R 2401   1.403   3.409   5.683
   58PA    H12S 2402   1.464   3.578   5.690
   58PA    C111 2403   1.286   3.541   5.809
   58PA    H11R 2404   1.218   3.628   5.792
   58PA    H11S 2405   1.222   3.452   5.828
   58PA    C110 2406   1.370   3.571   5.934
   58PA    H10R 2407   1.310   3.548   6.026
   58PA    H10S 2408   1.460   3.506   5.936
   58PA     C19 2409   1.414   3.717   5.943
   58PA     H9R 2410   1.477   3.742   5.855
   58PA     H9S 2411   1.325   3.784   5.942
   58PA     C18 2412   1.496   3.741   6.070
   58PA     H8R 2413   1.431   3.733   6.160
   58PA     H8S 2414   1.577   3.665   6.077
   58PA     C17 2415   1.561   3.877   6.068
   58PA     H7R 2416   1.606   3.900   5.969
   58PA     H7S 2417   1.478   3.947   6.085
   58PA     C16 2418   1.668   3.891   6.176
   58PA     H6R 2419   1.746   3.814   6.161
   58PA     H6S 2420   1.713   3.992   6.163
   58PA     C15 2421   1.612   3.879   6.319
   58PA     H5R 2422   1.539   3.960   6.332
   58PA     H5S 2423   1.556   3.786   6.336
   58PA     C14 2424   1.719   3.900   6.426
   58PA     H4R 2425   1.784   3.811   6.440
   58PA     H4S 2426   1.778   3.975   6.372
   58PA     C13 2427   1.671   3.964   6.557
   58PA     H3R 2428   1.758   4.007   6.610
   58PA     H3S 2429   1.605   4.051   6.535
   58PA     C12 2430   1.601   3.867   6.655
   58PA     H2R 2431   1.647   3.766   6.652
   58PA     H2S 2432   1.615   3.905   6.759
   59PC     C11 2433   1.451   3.858   6.627
   59PC     O12 2434   1.399   3.858   6.517
   59PC     O11 2435   1.388   3.848   6.743
   59PC      C1 2436   1.254   3.794   6.738
   59PC      HR 2437   1.188   3.861   6.796
   59PC      HS 2438   1.213   3.786   6.635
   59PC      C2 2439   1.251   3.650   6.799
   59PC      HX 2440   1.147   3.611   6.786
   59PC      C3 2441   1.286   3.650   6.952
   59PC      HA 2442   1.220   3.726   7.000
   59PC      HB 2443   1.256   3.551   6.995
   59PC     O31 2444   1.426   3.678   6.974
   59PC     P31 2445   1.498   3.661   7.115
   59PC     O32 2446   1.509   3.505   7.136
   59PC     C31 2447   1.596   3.420   7.063
   59PC     H1A 2448   1.570   3.313   7.084
   59PC     H1B 2449   1.582   3.433   6.954
   59PC     C32 2450   1.739   3.450   7.114
   59PC     H2A 2451   1.735   3.551   7.155
   59PC     H2B 2452   1.760   3.384   7.197
   59PC     N31 2453   1.849   3.442   7.010
   59PC     C33 2454   1.820   3.537   6.899
   59PC     H3A 2455   1.792   3.633   6.943
   59PC     H3B 2456   1.905   3.551   6.833
   59PC     H3C 2457   1.735   3.504   6.841
   59PC     C34 2458   1.985   3.475   7.062
   59PC     H4A 2459   2.058   3.470   6.982
   59PC     H4B 2460   1.987   3.577   7.101
   59PC     H4C 2461   2.018   3.404   7.138
   59PC     C35 2462   1.845   3.303   6.964
   59PC     H5A 2463   1.852   3.232   7.046
   59PC     H5B 2464   1.929   3.290   6.897
   59PC     H5C 2465   1.754   3.280   6.910
   59PC     O33 2466   1.633   3.721   7.106
   59PC     O34 2467   1.404   3.714   7.217
   59PC     O21 2468   1.344   3.574   6.722
   59PC     C21 2469   1.364   3.449   6.757
   59PC     O22 2470   1.295   3.382   6.832
   60OL     C12 2471   1.486   3.399   6.678
   60OL     H2R 2472   1.478   3.289   6.669
   60OL     H2S 2473   1.577   3.424   6.735
   60OL     C13 2474   1.495   3.466   6.539
   60OL     H3R 2475   1.529   3.571   6.554
   60OL     H3S 2476   1.396   3.470   6.488
   60OL     C14 2477   1.594   3.395   6.447
   60OL     H4R 2478   1.546   3.313   6.390
   60OL     H4S 2479   1.674   3.349   6.511
   60OL     C15 2480   1.665   3.489   6.351
   60OL     H5R 2481   1.709   3.576   6.404
   60OL     H5S 2482   1.596   3.529   6.272
   60OL     C16 2483   1.776   3.410   6.286
   60OL     H6R 2484   1.727   3.325   6.231
   60OL     H6S 2485   1.845   3.364   6.360
   60OL     C17 2486   1.859   3.491   6.191
   60OL     H7R 2487   1.962   3.511   6.230
   60OL     H7S 2488   1.810   3.588   6.168
   60OL     C18 2489   1.865   3.402   6.072
   60OL     H8R 2490   1.765   3.369   6.037
   60OL     H8S 2491   1.927   3.312   6.093
   60OL     C19 2492   1.909   3.484   5.963
   60OL     H9R 2493   1.904   3.594   5.968
   60OL    C110 2494   1.977   3.422   5.875
   60OL    H10R 2495   1.931   3.442   5.781
   60OL    C111 2496   2.019   3.283   5.868
   60OL    H11R 2497   1.928   3.225   5.872
   60OL    H11S 2498   2.098   3.251   5.942
   60OL    C112 2499   2.069   3.249   5.734
   60OL    H12R 2500   2.105   3.160   5.687
   60OL    H12S 2501   2.172   3.274   5.761
   60OL    C113 2502   1.962   3.251   5.625
   60OL    H13R 2503   1.895   3.335   5.642
   60OL    H13S 2504   1.913   3.156   5.659
   60OL    C114 2505   1.976   3.233   5.472
   60OL    H14R 2506   2.048   3.154   5.443
   60OL    H14S 2507   2.004   3.326   5.419
   60OL    C115 2508   1.837   3.192   5.419
   60OL    H15R 2509   1.759   3.258   5.463
   60OL    H15S 2510   1.820   3.089   5.456
   60OL    C116 2511   1.821   3.191   5.266
   60OL    H16R 2512   1.787   3.089   5.237
   60OL    H16S 2513   1.920   3.201   5.217
   60OL    C117 2514   1.712   3.287   5.211
   60OL    H17R 2515   1.613   3.272   5.257
   60OL    H17S 2516   1.706   3.268   5.101
   60OL    C118 2517   1.744   3.432   5.228
   60OL    H18R 2518   1.684   3.509   5.176
   60OL    H18S 2519   1.830   3.426   5.164
   60OL    H18T 2520   1.778   3.465   5.328
   61PA    C116 2521   1.393   1.888   5.394
   61PA    H16R 2522   1.412   1.934   5.295
   61PA    H16S 2523   1.284   1.887   5.410
   61PA    H16T 2524   1.432   1.785   5.394
   61PA    C115 2525   1.454   1.973   5.503
   61PA    H15R 2526   1.565   1.964   5.501
   61PA    H15S 2527   1.430   2.080   5.488
   61PA    C114 2528   1.397   1.937   5.639
   61PA    H14R 2529   1.286   1.943   5.642
   61PA    H14S 2530   1.427   1.833   5.663
   61PA    C113 2531   1.451   2.040   5.737
   61PA    H13R 2532   1.558   2.038   5.710
   61PA    H13S 2533   1.426   2.143   5.712
   61PA    C112 2534   1.408   2.021   5.884
   61PA    H12R 2535   1.478   2.081   5.948
   61PA    H12S 2536   1.303   2.053   5.897
   61PA    C111 2537   1.405   1.880   5.933
   61PA    H11R 2538   1.359   1.808   5.863
   61PA    H11S 2539   1.507   1.857   5.956
   61PA    C110 2540   1.385   1.829   6.070
   61PA    H10R 2541   1.436   1.864   6.160
   61PA    H10S 2542   1.287   1.877   6.086
   61PA     C19 2543   1.411   1.679   6.047
   61PA     H9R 2544   1.462   1.649   5.954
   61PA     H9S 2545   1.479   1.604   6.088
   61PA     C18 2546   1.294   1.624   6.103
   61PA     H8R 2547   1.231   1.648   6.014
   61PA     H8S 2548   1.297   1.515   6.115
   61PA     C17 2549   1.251   1.696   6.239
   61PA     H7R 2550   1.268   1.636   6.329
   61PA     H7S 2551   1.270   1.802   6.265
   61PA     C16 2552   1.113   1.722   6.205
   61PA     H6R 2553   1.115   1.789   6.117
   61PA     H6S 2554   1.104   1.624   6.160
   61PA     C15 2555   0.999   1.762   6.297
   61PA     H5R 2556   0.897   1.729   6.263
   61PA     H5S 2557   1.006   1.730   6.400
   61PA     C14 2558   0.988   1.908   6.299
   61PA     H4R 2559   1.080   1.934   6.355
   61PA     H4S 2560   0.994   1.945   6.193
   61PA     C13 2561   0.858   1.950   6.365
   61PA     H3R 2562   0.860   2.061   6.364
   61PA     H3S 2563   0.772   1.916   6.303
   61PA     C12 2564   0.839   1.897   6.509
   61PA     H2R 2565   0.742   1.936   6.548
   61PA     H2S 2566   0.831   1.786   6.512
   62PC     C11 2567   0.949   1.943   6.605
   62PC     O12 2568   0.989   2.057   6.616
   62PC     O11 2569   0.984   1.840   6.683
   62PC      C1 2570   1.064   1.873   6.799
   62PC      HR 2571   1.109   1.976   6.795
   62PC      HS 2572   1.006   1.857   6.891
   62PC      C2 2573   1.183   1.780   6.812
   62PC      HX 2574   1.151   1.675   6.816
   62PC      C3 2575   1.275   1.805   6.933
   62PC      HA 2576   1.209   1.808   7.021
   62PC      HB 2577   1.341   1.716   6.942
   62PC     O31 2578   1.349   1.926   6.915
   62PC     P31 2579   1.491   1.940   6.983
   62PC     O32 2580   1.441   1.983   7.126
   62PC     C31 2581   1.447   2.120   7.165
   62PC     H1A 2582   1.431   2.127   7.274
   62PC     H1B 2583   1.549   2.161   7.144
   62PC     C32 2584   1.345   2.211   7.091
   62PC     H2A 2585   1.371   2.314   7.114
   62PC     H2B 2586   1.366   2.197   6.984
   62PC     N31 2587   1.194   2.193   7.116
   62PC     C33 2588   1.160   2.048   7.116
   62PC     H3A 2589   1.201   2.001   7.205
   62PC     H3B 2590   1.054   2.033   7.111
   62PC     H3C 2591   1.210   2.001   7.032
   62PC     C34 2592   1.150   2.250   7.247
   62PC     H4A 2593   1.043   2.248   7.257
   62PC     H4B 2594   1.188   2.189   7.328
   62PC     H4C 2595   1.187   2.351   7.264
   62PC     C35 2596   1.118   2.252   7.000
   62PC     H5A 2597   1.109   2.359   7.009
   62PC     H5B 2598   1.020   2.208   6.992
   62PC     H5C 2599   1.169   2.230   6.906
   62PC     O33 2600   1.555   1.806   6.991
   62PC     O34 2601   1.569   2.053   6.926
   62PC     O21 2602   1.251   1.800   6.697
   62PC     C21 2603   1.344   1.725   6.682
   62PC     O22 2604   1.368   1.613   6.729
   63OL     C12 2605   1.404   1.794   6.571
   63OL     H2R 2606   1.335   1.844   6.501
   63OL     H2S 2607   1.441   1.693   6.537
   63OL     C13 2608   1.509   1.907   6.590
   63OL     H3R 2609   1.557   1.819   6.636
   63OL     H3S 2610   1.507   1.961   6.686
   63OL     C14 2611   1.610   1.988   6.479
   63OL     H4R 2612   1.639   1.964   6.380
   63OL     H4S 2613   1.718   1.966   6.474
   63OL     C15 2614   1.645   2.130   6.477
   63OL     H5R 2615   1.738   2.147   6.414
   63OL     H5S 2616   1.663   2.163   6.580
   63OL     C16 2617   1.526   2.166   6.402
   63OL     H6R 2618   1.495   2.090   6.324
   63OL     H6S 2619   1.553   2.259   6.348
   63OL     C17 2620   1.418   2.180   6.507
   63OL     H7R 2621   1.463   2.233   6.594
   63OL     H7S 2622   1.375   2.087   6.549
   63OL     C18 2623   1.313   2.258   6.437
   63OL     H8R 2624   1.369   2.337   6.381
   63OL     H8S 2625   1.251   2.306   6.515
   63OL     C19 2626   1.238   2.158   6.352
   63OL     H9R 2627   1.196   2.078   6.414
   63OL    C110 2628   1.226   2.144   6.219
   63OL    H10R 2629   1.139   2.089   6.182
   63OL    C111 2630   1.284   2.227   6.111
   63OL    H11R 2631   1.336   2.184   6.028
   63OL    H11S 2632   1.364   2.297   6.148
   63OL    C112 2633   1.157   2.294   6.058
   63OL    H12R 2634   1.222   2.374   6.028
   63OL    H12S 2635   1.086   2.338   6.132
   63OL    C113 2636   1.082   2.256   5.932
   63OL    H13R 2637   0.982   2.305   5.929
   63OL    H13S 2638   1.070   2.146   5.932
   63OL    C114 2639   1.152   2.303   5.807
   63OL    H14R 2640   1.262   2.310   5.829
   63OL    H14S 2641   1.113   2.404   5.779
   63OL    C115 2642   1.123   2.207   5.694
   63OL    H15R 2643   1.017   2.180   5.709
   63OL    H15S 2644   1.192   2.122   5.709
   63OL    C116 2645   1.132   2.257   5.550
   63OL    H16R 2646   1.236   2.235   5.520
   63OL    H16S 2647   1.108   2.366   5.543
   63OL    C117 2648   1.062   2.171   5.442
   63OL    H17R 2649   0.972   2.151   5.498
   63OL    H17S 2650   1.124   2.079   5.434
   63OL    C118 2651   1.018   2.215   5.299
   63OL    H18R 2652   1.093   2.238   5.227
   63OL    H18S 2653   0.993   2.323   5.285
   63OL    H18T 2654   1.016   2.131   5.228
   64PA    C116 2655   1.862   1.222   5.329
   64PA    H16R 2656   1.827   1.214   5.434
   64PA    H16S 2657   1.875   1.331   5.307
   64PA    H16T 2658   1.958   1.168   5.319
   64PA    C115 2659   1.761   1.163   5.237
   64PA    H15R 2660   1.782   1.192   5.130
   64PA    H15S 2661   1.745   1.054   5.242
   64PA    C114 2662   1.630   1.225   5.272
   64PA    H14R 2663   1.665   1.321   5.239
   64PA    H14S 2664   1.580   1.164   5.197
   64PA    C113 2665   1.562   1.214   5.408
   64PA    H13R 2666   1.522   1.111   5.413
   64PA    H13S 2667   1.643   1.226   5.482
   64PA    C112 2668   1.467   1.316   5.473
   64PA    H12R 2669   1.513   1.414   5.460
   64PA    H12S 2670   1.387   1.386   5.456
   64PA    C111 2671   1.365   1.252   5.565
   64PA    H11R 2672   1.264   1.304   5.569
   64PA    H11S 2673   1.340   1.145   5.546
   64PA    C110 2674   1.431   1.263   5.694
   64PA    H10R 2675   1.520   1.199   5.682
   64PA    H10S 2676   1.451   1.372   5.707
   64PA     C19 2677   1.326   1.215   5.782
   64PA     H9R 2678   1.253   1.299   5.764
   64PA     H9S 2679   1.287   1.116   5.745
   64PA     C18 2680   1.344   1.209   5.930
   64PA     H8R 2681   1.351   1.101   5.954
   64PA     H8S 2682   1.440   1.261   5.949
   64PA     C17 2683   1.229   1.265   6.017
   64PA     H7R 2684   1.217   1.374   6.009
   64PA     H7S 2685   1.126   1.226   6.005
   64PA     C16 2686   1.237   1.203   6.153
   64PA     H6R 2687   1.149   1.230   6.213
   64PA     H6S 2688   1.226   1.093   6.144
   64PA     C15 2689   1.370   1.243   6.210
   64PA     H5R 2690   1.441   1.167   6.171
   64PA     H5S 2691   1.401   1.342   6.171
   64PA     C14 2692   1.371   1.247   6.361
   64PA     H4R 2693   1.477   1.233   6.389
   64PA     H4S 2694   1.336   1.347   6.395
   64PA     C13 2695   1.282   1.141   6.426
   64PA     H3R 2696   1.178   1.183   6.433
   64PA     H3S 2697   1.275   1.049   6.364
   64PA     C12 2698   1.336   1.109   6.566
   64PA     H2R 2699   1.375   1.202   6.612
   64PA     H2S 2700   1.254   1.069   6.630
   65PC     C11 2701   1.450   1.007   6.559
   65PC     O12 2702   1.521   0.988   6.462
   65PC     O11 2703   1.451   0.939   6.673
   65PC      C1 2704   1.537   0.822   6.675
   65PC      HR 2705   1.478   0.739   6.718
   65PC      HS 2706   1.570   0.788   6.574
   65PC      C2 2707   1.661   0.842   6.765
   65PC      HX 2708   1.722   0.748   6.763
   65PC      C3 2709   1.618   0.864   6.913
   65PC      HA 2710   1.518   0.912   6.911
   65PC      HB 2711   1.608   0.766   6.965
   65PC     O31 2712   1.712   0.946   6.982
   65PC     P31 2713   1.671   1.014   7.116
   65PC     O32 2714   1.561   1.118   7.069
   65PC     C31 2715   1.588   1.212   6.966
   65PC     H1A 2716   1.697   1.239   6.957
   65PC     H1B 2717   1.556   1.170   6.869
   65PC     C32 2718   1.511   1.343   6.994
   65PC     H2A 2719   1.561   1.391   7.078
   65PC     H2B 2720   1.523   1.406   6.907
   65PC     N31 2721   1.363   1.334   7.028
   65PC     C33 2722   1.300   1.232   6.939
   65PC     H3A 2723   1.193   1.220   6.958
   65PC     H3B 2724   1.314   1.256   6.834
   65PC     H3C 2725   1.351   1.137   6.958
   65PC     C34 2726   1.346   1.292   7.171
   65PC     H4A 2727   1.404   1.202   7.192
   65PC     H4B 2728   1.384   1.369   7.237
   65PC     H4C 2729   1.242   1.275   7.194
   65PC     C35 2730   1.303   1.468   7.012
   65PC     H5A 2731   1.204   1.470   7.056
   65PC     H5B 2732   1.294   1.494   6.907
   65PC     H5C 2733   1.365   1.543   7.060
   65PC     O33 2734   1.607   0.912   7.204
   65PC     O34 2735   1.793   1.082   7.167
   65PC     O21 2736   1.740   0.954   6.720
   65PC     C21 2737   1.812   0.936   6.612
   65PC     O22 2738   1.819   0.834   6.545
   66OL     C12 2739   1.891   1.064   6.583
   66OL     H2R 2740   1.934   1.052   6.481
   66OL     H2S 2741   1.973   1.071   6.656
   66OL     C13 2742   1.802   1.190   6.587
   66OL     H3R 2743   1.782   1.216   6.694
   66OL     H3S 2744   1.704   1.169   6.540
   66OL     C14 2745   1.862   1.313   6.516
   66OL     H4R 2746   1.958   1.341   6.566
   66OL     H4S 2747   1.792   1.398   6.530
   66OL     C15 2748   1.890   1.301   6.364
   66OL     H5R 2749   1.982   1.241   6.347
   66OL     H5S 2750   1.912   1.404   6.327
   66OL     C16 2751   1.777   1.241   6.278
   66OL     H6R 2752   1.689   1.309   6.281
   66OL     H6S 2753   1.745   1.143   6.321
   66OL     C17 2754   1.820   1.217   6.131
   66OL     H7R 2755   1.897   1.137   6.129
   66OL     H7S 2756   1.868   1.311   6.096
   66OL     C18 2757   1.707   1.180   6.033
   66OL     H8R 2758   1.746   1.186   5.929
   66OL     H8S 2759   1.627   1.257   6.042
   66OL     C19 2760   1.650   1.043   6.062
   66OL     H9R 2761   1.638   1.020   6.169
   66OL    C110 2762   1.608   0.951   5.973
   66OL    H10R 2763   1.567   0.856   6.011
   66OL    C111 2764   1.608   0.962   5.823
   66OL    H11R 2765   1.704   0.926   5.782
   66OL    H11S 2766   1.598   1.068   5.793
   66OL    C112 2767   1.490   0.880   5.766
   66OL    H12R 2768   1.395   0.917   5.811
   66OL    H12S 2769   1.503   0.773   5.795
   66OL    C113 2770   1.475   0.884   5.613
   66OL    H13R 2771   1.463   0.989   5.581
   66OL    H13S 2772   1.384   0.829   5.583
   66OL    C114 2773   1.599   0.826   5.545
   66OL    H14R 2774   1.614   0.722   5.583
   66OL    H14S 2775   1.687   0.886   5.577
   66OL    C115 2776   1.597   0.826   5.391
   66OL    H15R 2777   1.698   0.792   5.359
   66OL    H15S 2778   1.584   0.928   5.352
   66OL    C116 2779   1.484   0.737   5.336
   66OL    H16R 2780   1.384   0.777   5.358
   66OL    H16S 2781   1.491   0.646   5.398
   66OL    C117 2782   1.490   0.700   5.187
   66OL    H17R 2783   1.436   0.605   5.167
   66OL    H17S 2784   1.594   0.678   5.164
   66OL    C118 2785   1.453   0.807   5.088
   66OL    H18R 2786   1.486   0.776   4.987
   66OL    H18S 2787   1.509   0.900   5.113
   66OL    H18T 2788   1.344   0.825   5.087
   67PA    C116 2789   2.829   4.918   5.376
   67PA    H16R 2790   2.859   4.853   5.461
   67PA    H16S 2791   2.732   4.882   5.336
   67PA    H16T 2792   2.816   5.022   5.415
   67PA    C115 2793   2.937   4.914   5.270
   67PA    H15R 2794   2.954   4.812   5.230
   67PA    H15S 2795   2.909   4.981   5.185
   67PA    C114 2796   3.067   4.966   5.329
   67PA    H14R 2797   3.136   4.981   5.243
   67PA    H14S 2798   3.038   5.067   5.371
   67PA    C113 2799   3.132   4.882   5.443
   67PA    H13R 2800   3.072   4.902   5.535
   67PA    H13S 2801   3.123   4.776   5.414
   67PA    C112 2802   3.281   4.899   5.488
   67PA    H12R 2803   3.352   4.875   5.406
   67PA    H12S 2804   3.310   5.001   5.521
   67PA    C111 2805   3.309   4.834   5.622
   67PA    H11R 2806   3.272   4.731   5.623
   67PA    H11S 2807   3.419   4.830   5.626
   67PA    C110 2808   3.253   4.921   5.737
   67PA    H10R 2809   3.298   5.023   5.734
   67PA    H10S 2810   3.143   4.930   5.732
   67PA     C19 2811   3.291   4.882   5.877
   67PA     H9R 2812   3.396   4.867   5.879
   67PA     H9S 2813   3.264   4.963   5.949
   67PA     C18 2814   3.260   4.747   5.928
   67PA     H8R 2815   3.150   4.756   5.922
   67PA     H8S 2816   3.295   4.668   5.857
   67PA     C17 2817   3.321   4.721   6.069
   67PA     H7R 2818   3.307   4.613   6.093
   67PA     H7S 2819   3.431   4.728   6.063
   67PA     C16 2820   3.274   4.814   6.186
   67PA     H6R 2821   3.347   4.800   6.269
   67PA     H6S 2822   3.270   4.919   6.151
   67PA     C15 2823   3.139   4.806   6.259
   67PA     H5R 2824   3.126   4.873   6.343
   67PA     H5S 2825   3.053   4.822   6.189
   67PA     C14 2826   3.122   4.677   6.326
   67PA     H4R 2827   3.017   4.655   6.357
   67PA     H4S 2828   3.161   4.624   6.239
   67PA     C13 2829   3.215   4.593   6.404
   67PA     H3R 2830   3.149   4.510   6.385
   67PA     H3S 2831   3.312   4.559   6.360
   67PA     C12 2832   3.175   4.584   6.544
   67PA     H2R 2833   3.086   4.651   6.558
   67PA     H2S 2834   3.148   4.483   6.583
   68PC     C11 2835   3.294   4.638   6.606
   68PC     O12 2836   3.404   4.651   6.555
   68PC     O11 2837   3.253   4.676   6.719
   68PC      C1 2838   3.337   4.757   6.795
   68PC      HR 2839   3.363   4.697   6.883
   68PC      HS 2840   3.429   4.790   6.740
   68PC      C2 2841   3.255   4.879   6.835
   68PC      HX 2842   3.322   4.937   6.903
   68PC      C3 2843   3.117   4.850   6.903
   68PC      HA 2844   3.137   4.774   6.981
   68PC      HB 2845   3.087   4.945   6.952
   68PC     O31 2846   3.011   4.812   6.813
   68PC     P31 2847   2.932   4.675   6.828
   68PC     O32 2848   2.911   4.675   6.985
   68PC     C31 2849   2.801   4.742   7.043
   68PC     H1A 2850   2.810   4.852   7.031
   68PC     H1B 2851   2.704   4.709   6.997
   68PC     C32 2852   2.797   4.697   7.191
   68PC     H2A 2853   2.699   4.721   7.230
   68PC     H2B 2854   2.810   4.589   7.185
   68PC     N31 2855   2.902   4.750   7.287
   68PC     C33 2856   2.886   4.687   7.422
   68PC     H3A 2857   2.794   4.722   7.468
   68PC     H3B 2858   2.886   4.579   7.418
   68PC     H3C 2859   2.968   4.718   7.486
   68PC     C34 2860   3.038   4.714   7.240
   68PC     H4A 2861   3.047   4.608   7.221
   68PC     H4B 2862   3.058   4.761   7.144
   68PC     H4C 2863   3.116   4.743   7.309
   68PC     C35 2864   2.890   4.900   7.302
   68PC     H5A 2865   2.901   4.950   7.206
   68PC     H5B 2866   2.965   4.941   7.369
   68PC     H5C 2867   2.795   4.931   7.344
   68PC     O33 2868   2.798   4.682   6.765
   68PC     O34 2869   3.015   4.559   6.794
   68PC     O21 2870   3.231   4.949   6.716
   68PC     C21 2871   3.202   5.070   6.740
   68PC     O22 2872   3.206   5.130   6.846
   69OL     C12 2873   3.164   5.128   6.611
   69OL     H2R 2874   3.249   5.143   6.543
   69OL     H2S 2875   3.152   5.232   6.646
   69OL     C13 2876   3.043   5.047   6.548
   69OL     H3R 2877   2.979   5.007   6.628
   69OL     H3S 2878   3.090   4.964   6.496
   69OL     C14 2879   2.946   5.123   6.456
   69OL     H4R 2880   2.998   5.163   6.372
   69OL     H4S 2881   2.893   5.191   6.519
   69OL     C15 2882   2.811   5.092   6.398
   69OL     H5R 2883   2.775   5.182   6.341
   69OL     H5S 2884   2.734   5.072   6.477
   69OL     C16 2885   2.838   4.982   6.305
   69OL     H6R 2886   2.880   4.900   6.369
   69OL     H6S 2887   2.914   5.010   6.229
   69OL     C17 2888   2.709   4.945   6.243
   69OL     H7R 2889   2.678   5.024   6.170
   69OL     H7S 2890   2.632   4.942   6.323
   69OL     C18 2891   2.738   4.811   6.182
   69OL     H8R 2892   2.791   4.743   6.252
   69OL     H8S 2893   2.804   4.831   6.095
   69OL     C19 2894   2.610   4.747   6.152
   69OL     H9R 2895   2.534   4.746   6.230
   69OL    C110 2896   2.577   4.715   6.030
   69OL    H10R 2897   2.470   4.698   6.010
   69OL    C111 2898   2.668   4.741   5.913
   69OL    H11R 2899   2.776   4.725   5.931
   69OL    H11S 2900   2.655   4.844   5.872
   69OL    C112 2901   2.635   4.649   5.801
   69OL    H12R 2902   2.527   4.635   5.810
   69OL    H12S 2903   2.632   4.542   5.813
   69OL    C113 2904   2.714   4.700   5.676
   69OL    H13R 2905   2.823   4.709   5.690
   69OL    H13S 2906   2.686   4.798   5.635
   69OL    C114 2907   2.675   4.627   5.555
   69OL    H14R 2908   2.682   4.687   5.460
   69OL    H14S 2909   2.586   4.581   5.598
   69OL    C115 2910   2.715   4.500   5.508
   69OL    H15R 2911   2.698   4.416   5.581
   69OL    H15S 2912   2.819   4.538   5.504
   69OL    C116 2913   2.662   4.467   5.374
   69OL    H16R 2914   2.559   4.443   5.374
   69OL    H16S 2915   2.700   4.369   5.375
   69OL    C117 2916   2.709   4.549   5.255
   69OL    H17R 2917   2.820   4.548   5.250
   69OL    H17S 2918   2.667   4.650   5.254
   69OL    C118 2919   2.671   4.483   5.129
   69OL    H18R 2920   2.565   4.464   5.109
   69OL    H18S 2921   2.711   4.386   5.160
   69OL    H18T 2922   2.718   4.514   5.034
   70PA    C116 2923   5.086   2.059   5.025
   70PA    H16R 2924   5.183   2.050   4.972
   70PA    H16S 2925   5.034   2.147   4.981
   70PA    H16T 2926   5.029   1.965   5.005
   70PA    C115 2927   5.100   2.087   5.176
   70PA    H15R 2928   5.005   2.085   5.229
   70PA    H15S 2929   5.144   1.992   5.213
   70PA    C114 2930   5.175   2.224   5.198
   70PA    H14R 2931   5.266   2.220   5.133
   70PA    H14S 2932   5.111   2.302   5.154
   70PA    C113 2933   5.210   2.290   5.337
   70PA    H13R 2934   5.300   2.250   5.377
   70PA    H13S 2935   5.274   2.379   5.329
   70PA    C112 2936   5.089   2.295   5.437
   70PA    H12R 2937   5.033   2.382   5.400
   70PA    H12S 2938   5.028   2.202   5.426
   70PA    C111 2939   5.106   2.312   5.590
   70PA    H11R 2940   5.109   2.217   5.649
   70PA    H11S 2941   5.198   2.370   5.610
   70PA    C110 2942   5.001   2.368   5.675
   70PA    H10R 2943   4.964   2.459   5.624
   70PA    H10S 2944   4.920   2.291   5.684
   70PA     C19 2945   5.076   2.401   5.805
   70PA     H9R 2946   5.099   2.314   5.870
   70PA     H9S 2947   5.171   2.455   5.790
   70PA     C18 2948   4.995   2.490   5.888
   70PA     H8R 2949   5.054   2.521   5.977
   70PA     H8S 2950   4.963   2.577   5.828
   70PA     C17 2951   4.885   2.401   5.931
   70PA     H7R 2952   4.792   2.462   5.918
   70PA     H7S 2953   4.864   2.310   5.870
   70PA     C16 2954   4.924   2.361   6.074
   70PA     H6R 2955   4.961   2.435   6.142
   70PA     H6S 2956   4.819   2.383   6.097
   70PA     C15 2957   5.011   2.227   6.106
   70PA     H5R 2958   5.002   2.165   6.015
   70PA     H5S 2959   5.114   2.267   6.117
   70PA     C14 2960   5.010   2.119   6.227
   70PA     H4R 2961   4.918   2.065   6.244
   70PA     H4S 2962   5.056   2.023   6.196
   70PA     C13 2963   5.052   2.150   6.373
   70PA     H3R 2964   5.047   2.257   6.404
   70PA     H3S 2965   4.986   2.089   6.441
   70PA     C12 2966   5.179   2.092   6.419
   70PA     H2R 2967   5.166   1.984   6.393
   70PA     H2S 2968   5.248   2.153   6.358
   71PC     C11 2969   5.183   2.117   6.569
   71PC     O12 2970   5.156   2.039   6.658
   71PC     O11 2971   5.215   2.244   6.585
   71PC      C1 2972   5.252   2.273   6.720
   71PC      HR 2973   5.173   2.246   6.794
   71PC      HS 2974   5.343   2.215   6.743
   71PC      C2 2975   5.283   2.423   6.731
   71PC      HX 2976   5.357   2.444   6.651
   71PC      C3 2977   5.351   2.454   6.868
   71PC      HA 2978   5.380   2.356   6.915
   71PC      HB 2979   5.445   2.510   6.849
   71PC     O31 2980   5.264   2.526   6.955
   71PC     P31 2981   5.300   2.545   7.109
   71PC     O32 2982   5.158   2.518   7.173
   71PC     C31 2983   5.088   2.398   7.146
   71PC     H1A 2984   5.156   2.309   7.148
   71PC     H1B 2985   5.012   2.382   7.225
   71PC     C32 2986   5.018   2.408   7.008
   71PC     H2A 2987   5.098   2.442   6.941
   71PC     H2B 2988   4.990   2.309   6.977
   71PC     N31 2989   4.899   2.504   6.997
   71PC     C33 2990   4.794   2.466   7.096
   71PC     H3A 2991   4.769   2.360   7.090
   71PC     H3B 2992   4.830   2.478   7.198
   71PC     H3C 2993   4.701   2.520   7.084
   71PC     C34 2994   4.946   2.644   7.026
   71PC     H4A 2995   5.032   2.668   6.964
   71PC     H4B 2996   4.867   2.716   7.011
   71PC     H4C 2997   4.983   2.648   7.128
   71PC     C35 2998   4.840   2.498   6.861
   71PC     H5A 2999   4.741   2.542   6.862
   71PC     H5B 3000   4.832   2.396   6.826
   71PC     H5C 3001   4.900   2.553   6.790
   71PC     O33 3002   5.389   2.438   7.158
   71PC     O34 3003   5.333   2.687   7.134
   71PC     O21 3004   5.160   2.494   6.707
   71PC     C21 3005   5.179   2.619   6.663
   71PC     O22 3006   5.286   2.676   6.662
   72OL     C12 3007   5.051   2.671   6.598
   72OL     H2R 3008   5.077   2.765   6.546
   72OL     H2S 3009   4.977   2.695   6.676
   72OL     C13 3010   4.993   2.566   6.499
   72OL     H3R 3011   4.964   2.479   6.560
   72OL     H3S 3012   5.071   2.532   6.428
   72OL     C14 3013   4.868   2.609   6.420
   72OL     H4R 3014   4.794   2.640   6.492
   72OL     H4S 3015   4.825   2.526   6.359
   72OL     C15 3016   4.892   2.726   6.329
   72OL     H5R 3017   4.941   2.804   6.390
   72OL     H5S 3018   4.796   2.767   6.291
   72OL     C16 3019   4.978   2.675   6.215
   72OL     H6R 3020   4.910   2.610   6.159
   72OL     H6S 3021   5.068   2.624   6.256
   72OL     C17 3022   5.024   2.772   6.113
   72OL     H7R 3023   4.931   2.828   6.096
   72OL     H7S 3024   5.041   2.730   6.011
   72OL     C18 3025   5.152   2.840   6.161
   72OL     H8R 3026   5.162   2.877   6.265
   72OL     H8S 3027   5.168   2.927   6.100
   72OL     C19 3028   5.260   2.748   6.137
   72OL     H9R 3029   5.260   2.651   6.186
   72OL    C110 3030   5.348   2.780   6.048
   72OL    H10R 3031   5.433   2.711   6.050
   72OL    C111 3032   5.355   2.906   5.961
   72OL    H11R 3033   5.446   2.942   6.007
   72OL    H11S 3034   5.344   3.003   6.000
   72OL    C112 3035   5.350   2.916   5.804
   72OL    H12R 3036   5.422   2.861   5.741
   72OL    H12S 3037   5.385   3.014   5.767
   72OL    C113 3038   5.220   2.866   5.747
   72OL    H13R 3039   5.131   2.894   5.804
   72OL    H13S 3040   5.224   2.753   5.754
   72OL    C114 3041   5.211   2.911   5.603
   72OL    H14R 3042   5.315   2.893   5.587
   72OL    H14S 3043   5.224   3.012   5.564
   72OL    C115 3044   5.116   2.821   5.527
   72OL    H15R 3045   5.020   2.875   5.524
   72OL    H15S 3046   5.092   2.734   5.594
   72OL    C116 3047   5.159   2.752   5.394
   72OL    H16R 3048   5.118   2.656   5.420
   72OL    H16S 3049   5.224   2.677   5.349
   72OL    C117 3050   5.182   2.823   5.262
   72OL    H17R 3051   5.269   2.848   5.311
   72OL    H17S 3052   5.142   2.925   5.258
   72OL    C118 3053   5.189   2.756   5.119
   72OL    H18R 3054   5.255   2.673   5.119
   72OL    H18S 3055   5.205   2.816   5.031
   72OL    H18T 3056   5.096   2.717   5.075
   73PA    C116 3057   4.574   1.157   5.291
   73PA    H16R 3058   4.641   1.233   5.335
   73PA    H16S 3059   4.472   1.198   5.270
   73PA    H16T 3060   4.617   1.114   5.198
   73PA    C115 3061   4.561   1.048   5.391
   73PA    H15R 3062   4.540   1.084   5.493
   73PA    H15S 3063   4.469   0.996   5.365
   73PA    C114 3064   4.683   0.956   5.385
   73PA    H14R 3065   4.688   0.908   5.285
   73PA    H14S 3066   4.778   1.003   5.416
   73PA    C113 3067   4.662   0.853   5.486
   73PA    H13R 3068   4.553   0.855   5.470
   73PA    H13S 3069   4.705   0.751   5.470
   73PA    C112 3070   4.662   0.907   5.624
   73PA    H12R 3071   4.682   1.014   5.632
   73PA    H12S 3072   4.555   0.895   5.660
   73PA    C111 3073   4.747   0.825   5.715
   73PA    H11R 3074   4.718   0.852   5.818
   73PA    H11S 3075   4.713   0.728   5.671
   73PA    C110 3076   4.884   0.771   5.713
   73PA    H10R 3077   4.896   0.678   5.652
   73PA    H10S 3078   4.919   0.853   5.657
   73PA     C19 3079   4.930   0.744   5.858
   73PA     H9R 3080   4.875   0.657   5.903
   73PA     H9S 3081   5.036   0.715   5.851
   73PA     C18 3082   4.909   0.852   5.964
   73PA     H8R 3083   4.931   0.951   5.919
   73PA     H8S 3084   4.804   0.856   6.001
   73PA     C17 3085   4.998   0.824   6.084
   73PA     H7R 3086   4.992   0.715   6.108
   73PA     H7S 3087   5.102   0.846   6.055
   73PA     C16 3088   4.954   0.900   6.209
   73PA     H6R 3089   4.932   1.006   6.184
   73PA     H6S 3090   4.858   0.854   6.244
   73PA     C15 3091   5.060   0.888   6.319
   73PA     H5R 3092   5.098   0.783   6.318
   73PA     H5S 3093   5.146   0.954   6.294
   73PA     C14 3094   5.010   0.916   6.463
   73PA     H4R 3095   5.099   0.907   6.529
   73PA     H4S 3096   4.968   1.018   6.473
   73PA     C13 3097   4.907   0.814   6.510
   73PA     H3R 3098   4.813   0.821   6.451
   73PA     H3S 3099   4.954   0.716   6.486
   73PA     C12 3100   4.871   0.826   6.659
   73PA     H2R 3101   4.848   0.932   6.683
   73PA     H2S 3102   4.783   0.765   6.686
   74PC     C11 3103   4.988   0.779   6.745
   74PC     O12 3104   5.050   0.676   6.731
   74PC     O11 3105   5.019   0.876   6.826
   74PC      C1 3106   5.138   0.854   6.901
   74PC      HR 3107   5.134   0.760   6.962
   74PC      HS 3108   5.225   0.846   6.834
   74PC      C2 3109   5.149   0.977   6.991
   74PC      HX 3110   5.254   0.991   7.023
   74PC      C3 3111   5.068   0.954   7.117
   74PC      HA 3112   5.101   0.859   7.166
   74PC      HB 3113   5.084   1.040   7.187
   74PC     O31 3114   4.932   0.943   7.078
   74PC     P31 3115   4.839   0.913   7.201
   74PC     O32 3116   4.708   0.977   7.145
   74PC     C31 3117   4.668   0.965   7.009
   74PC     H1A 3118   4.687   0.864   6.965
   74PC     H1B 3119   4.560   0.987   7.013
   74PC     C32 3120   4.717   1.072   6.911
   74PC     H2A 3121   4.825   1.061   6.904
   74PC     H2B 3122   4.673   1.049   6.815
   74PC     N31 3123   4.678   1.213   6.945
   74PC     C33 3124   4.530   1.231   6.966
   74PC     H3A 3125   4.497   1.165   7.047
   74PC     H3B 3126   4.509   1.333   6.998
   74PC     H3C 3127   4.470   1.206   6.880
   74PC     C34 3128   4.745   1.251   7.074
   74PC     H4A 3129   4.724   1.172   7.149
   74PC     H4B 3130   4.852   1.250   7.063
   74PC     H4C 3131   4.710   1.346   7.111
   74PC     C35 3132   4.722   1.302   6.836
   74PC     H5A 3133   4.686   1.403   6.857
   74PC     H5B 3134   4.679   1.268   6.743
   74PC     H5C 3135   4.829   1.305   6.827
   74PC     O33 3136   4.825   0.766   7.217
   74PC     O34 3137   4.887   0.991   7.318
   74PC     O21 3138   5.096   1.093   6.920
   74PC     C21 3139   5.186   1.137   6.835
   74PC     O22 3140   5.306   1.125   6.853
   75OL     C12 3141   5.115   1.237   6.740
   75OL     H2R 3142   5.075   1.319   6.803
   75OL     H2S 3143   5.029   1.183   6.695
   75OL     C13 3144   5.201   1.309   6.632
   75OL     H3R 3145   5.240   1.239   6.557
   75OL     H3S 3146   5.288   1.361   6.677
   75OL     C14 3147   5.130   1.398   6.531
   75OL     H4R 3148   5.204   1.418   6.450
   75OL     H4S 3149   5.104   1.495   6.577
   75OL     C15 3150   5.011   1.330   6.463
   75OL     H5R 3151   4.925   1.323   6.533
   75OL     H5S 3152   5.039   1.225   6.436
   75OL     C16 3153   4.972   1.396   6.329
   75OL     H6R 3154   5.067   1.419   6.276
   75OL     H6S 3155   4.924   1.494   6.340
   75OL     C17 3156   4.881   1.306   6.244
   75OL     H7R 3157   4.806   1.256   6.310
   75OL     H7S 3158   4.945   1.228   6.197
   75OL     C18 3159   4.801   1.378   6.136
   75OL     H8R 3160   4.743   1.462   6.180
   75OL     H8S 3161   4.730   1.311   6.084
   75OL     C19 3162   4.903   1.430   6.042
   75OL     H9R 3163   4.981   1.490   6.093
   75OL    C110 3164   4.899   1.431   5.908
   75OL    H10R 3165   4.979   1.483   5.853
   75OL    C111 3166   4.794   1.378   5.818
   75OL    H11R 3167   4.735   1.456   5.767
   75OL    H11S 3168   4.725   1.309   5.870
   75OL    C112 3169   4.884   1.303   5.721
   75OL    H12R 3170   4.960   1.369   5.672
   75OL    H12S 3171   4.820   1.266   5.638
   75OL    C113 3172   4.950   1.186   5.800
   75OL    H13R 3173   4.871   1.109   5.806
   75OL    H13S 3174   4.981   1.209   5.903
   75OL    C114 3175   5.076   1.130   5.740
   75OL    H14R 3176   5.126   1.053   5.802
   75OL    H14S 3177   5.150   1.210   5.717
   75OL    C115 3178   5.024   1.072   5.613
   75OL    H15R 3179   5.035   1.166   5.557
   75OL    H15S 3180   4.916   1.047   5.610
   75OL    C116 3181   5.105   0.955   5.562
   75OL    H16R 3182   5.094   0.885   5.645
   75OL    H16S 3183   5.211   0.981   5.557
   75OL    C117 3184   5.060   0.877   5.437
   75OL    H17R 3185   4.956   0.900   5.414
   75OL    H17S 3186   5.046   0.771   5.467
   75OL    C118 3187   5.171   0.895   5.326
   75OL    H18R 3188   5.273   0.900   5.364
   75OL    H18S 3189   5.165   0.976   5.256
   75OL    H18T 3190   5.172   0.829   5.244
   76PA    C116 3191   4.427   0.865   5.042
   76PA    H16R 3192   4.513   0.920   5.085
   76PA    H16S 3193   4.431   0.858   4.930
   76PA    H16T 3194   4.483   0.780   5.037
   76PA    C115 3195   4.338   0.770   5.133
   76PA    H15R 3196   4.239   0.808   5.105
   76PA    H15S 3197   4.330   0.674   5.077
   76PA    C114 3198   4.358   0.752   5.302
   76PA    H14R 3199   4.372   0.852   5.330
   76PA    H14S 3200   4.253   0.735   5.323
   76PA    C113 3201   4.453   0.652   5.414
   76PA    H13R 3202   4.549   0.615   5.397
   76PA    H13S 3203   4.497   0.698   5.493
   76PA    C112 3204   4.421   0.519   5.498
   76PA    H12R 3205   4.425   0.427   5.441
   76PA    H12S 3206   4.495   0.464   5.554
   76PA    C111 3207   4.316   0.556   5.592
   76PA    H11R 3208   4.238   0.611   5.536
   76PA    H11S 3209   4.280   0.463   5.641
   76PA    C110 3210   4.382   0.653   5.686
   76PA    H10R 3211   4.401   0.750   5.633
   76PA    H10S 3212   4.319   0.687   5.768
   76PA     C19 3213   4.511   0.586   5.733
   76PA     H9R 3214   4.500   0.479   5.754
   76PA     H9S 3215   4.590   0.588   5.650
   76PA     C18 3216   4.581   0.659   5.835
   76PA     H8R 3217   4.687   0.622   5.833
   76PA     H8S 3218   4.552   0.759   5.797
   76PA     C17 3219   4.549   0.694   5.970
   76PA     H7R 3220   4.641   0.744   6.010
   76PA     H7S 3221   4.464   0.764   5.979
   76PA     C16 3222   4.540   0.560   6.024
   76PA     H6R 3223   4.467   0.499   5.967
   76PA     H6S 3224   4.639   0.512   6.016
   76PA     C15 3225   4.507   0.582   6.164
   76PA     H5R 3226   4.583   0.650   6.210
   76PA     H5S 3227   4.407   0.630   6.162
   76PA     C14 3228   4.506   0.447   6.224
   76PA     H4R 3229   4.447   0.385   6.152
   76PA     H4S 3230   4.610   0.408   6.228
   76PA     C13 3231   4.428   0.443   6.353
   76PA     H3R 3232   4.352   0.524   6.349
   76PA     H3S 3233   4.373   0.347   6.356
   76PA     C12 3234   4.522   0.452   6.472
   76PA     H2R 3235   4.598   0.372   6.463
   76PA     H2S 3236   4.573   0.550   6.474
   77PC     C11 3237   4.447   0.428   6.602
   77PC     O12 3238   4.328   0.403   6.613
   77PC     O11 3239   4.533   0.440   6.698
   77PC      C1 3240   4.483   0.432   6.833
   77PC      HR 3241   4.376   0.403   6.841
   77PC      HS 3242   4.543   0.358   6.890
   77PC      C2 3243   4.499   0.571   6.895
   77PC      HX 3244   4.607   0.599   6.900
   77PC      C3 3245   4.451   0.564   7.043
   77PC      HA 3246   4.510   0.485   7.095
   77PC      HB 3247   4.480   0.656   7.100
   77PC     O31 3248   4.312   0.531   7.047
   77PC     P31 3249   4.215   0.633   7.119
   77PC     O32 3250   4.079   0.551   7.121
   77PC     C31 3251   4.018   0.518   6.996
   77PC     H1A 3252   3.908   0.510   7.011
   77PC     H1B 3253   4.032   0.599   6.919
   77PC     C32 3254   4.074   0.388   6.933
   77PC     H2A 3255   4.023   0.371   6.839
   77PC     H2B 3256   4.178   0.411   6.911
   77PC     N31 3257   4.072   0.258   7.012
   77PC     C33 3258   4.159   0.274   7.135
   77PC     H3A 3259   4.118   0.350   7.203
   77PC     H3B 3260   4.174   0.182   7.190
   77PC     H3C 3261   4.256   0.316   7.110
   77PC     C34 3262   3.933   0.217   7.052
   77PC     H4A 3263   3.938   0.123   7.108
   77PC     H4B 3264   3.891   0.296   7.113
   77PC     H4C 3265   3.871   0.200   6.966
   77PC     C35 3266   4.124   0.150   6.922
   77PC     H5A 3267   4.208   0.097   6.965
   77PC     H5B 3268   4.157   0.191   6.827
   77PC     H5C 3269   4.047   0.077   6.904
   77PC     O33 3270   4.258   0.651   7.261
   77PC     O34 3271   4.193   0.754   7.038
   77PC     O21 3272   4.432   0.660   6.801
   77PC     C21 3273   4.416   0.781   6.844
   77PC     O22 3274   4.447   0.822   6.953
   78OL     C12 3275   4.371   0.877   6.734
   78OL     H2R 3276   4.447   0.958   6.726
   78OL     H2S 3277   4.277   0.922   6.773
   78OL     C13 3278   4.350   0.810   6.597
   78OL     H3R 3279   4.260   0.746   6.604
   78OL     H3S 3280   4.436   0.744   6.573
   78OL     C14 3281   4.339   0.912   6.483
   78OL     H4R 3282   4.432   0.974   6.482
   78OL     H4S 3283   4.253   0.979   6.502
   78OL     C15 3284   4.319   0.847   6.346
   78OL     H5R 3285   4.403   0.777   6.324
   78OL     H5S 3286   4.321   0.927   6.268
   78OL     C16 3287   4.185   0.771   6.340
   78OL     H6R 3288   4.107   0.834   6.388
   78OL     H6S 3289   4.197   0.678   6.400
   78OL     C17 3290   4.138   0.731   6.200
   78OL     H7R 3291   4.205   0.651   6.165
   78OL     H7S 3292   4.151   0.815   6.127
   78OL     C18 3293   3.991   0.684   6.196
   78OL     H8R 3294   3.965   0.653   6.092
   78OL     H8S 3295   3.925   0.771   6.219
   78OL     C19 3296   3.956   0.571   6.290
   78OL     H9R 3297   3.885   0.598   6.369
   78OL    C110 3298   4.008   0.447   6.288
   78OL    H10R 3299   3.973   0.376   6.365
   78OL    C111 3300   4.113   0.392   6.193
   78OL    H11R 3301   4.191   0.345   6.257
   78OL    H11S 3302   4.163   0.468   6.132
   78OL    C112 3303   4.074   0.283   6.092
   78OL    H12R 3304   4.033   0.205   6.154
   78OL    H12S 3305   4.164   0.237   6.045
   78OL    C113 3306   3.965   0.314   5.988
   78OL    H13R 3307   3.876   0.358   6.039
   78OL    H13S 3308   3.933   0.218   5.941
   78OL    C114 3309   4.013   0.396   5.871
   78OL    H14R 3310   4.109   0.353   5.835
   78OL    H14S 3311   4.032   0.500   5.905
   78OL    C115 3312   3.912   0.393   5.756
   78OL    H15R 3313   3.809   0.414   5.793
   78OL    H15S 3314   3.910   0.290   5.713
   78OL    C116 3315   3.949   0.496   5.649
   78OL    H16R 3316   4.059   0.511   5.651
   78OL    H16S 3317   3.903   0.593   5.679
   78OL    C117 3318   3.904   0.460   5.507
   78OL    H17R 3319   3.934   0.544   5.440
   78OL    H17S 3320   3.793   0.458   5.506
   78OL    C118 3321   3.954   0.326   5.449
   78OL    H18R 3322   3.907   0.241   5.503
   78OL    H18S 3323   4.064   0.316   5.457
   78OL    H18T 3324   3.926   0.319   5.342
   79PA    C116 3325   4.750   4.238   4.905
   79PA    H16R 3326   4.693   4.149   4.939
   79PA    H16S 3327   4.782   4.227   4.800
   79PA    H16T 3328   4.679   4.317   4.905
   79PA    C115 3329   4.869   4.263   4.993
   79PA    H15R 3330   4.953   4.199   4.974
   79PA    H15S 3331   4.942   4.324   4.943
   79PA    C114 3332   4.847   4.253   5.146
   79PA    H14R 3333   4.948   4.240   5.192
   79PA    H14S 3334   4.794   4.340   5.182
   79PA    C113 3335   4.750   4.151   5.204
   79PA    H13R 3336   4.645   4.176   5.215
   79PA    H13S 3337   4.732   4.089   5.121
   79PA    C112 3338   4.790   4.098   5.341
   79PA    H12R 3339   4.710   4.029   5.375
   79PA    H12S 3340   4.886   4.045   5.348
   79PA    C111 3341   4.814   4.215   5.435
   79PA    H11R 3342   4.919   4.249   5.433
   79PA    H11S 3343   4.764   4.301   5.394
   79PA    C110 3344   4.765   4.183   5.574
   79PA    H10R 3345   4.754   4.278   5.632
   79PA    H10S 3346   4.663   4.138   5.565
   79PA     C19 3347   4.856   4.084   5.646
   79PA     H9R 3348   4.908   4.019   5.573
   79PA     H9S 3349   4.935   4.142   5.700
   79PA     C18 3350   4.777   3.996   5.743
   79PA     H8R 3351   4.706   3.934   5.684
   79PA     H8S 3352   4.845   3.928   5.797
   79PA     C17 3353   4.698   4.081   5.842
   79PA     H7R 3354   4.766   4.151   5.895
   79PA     H7S 3355   4.622   4.143   5.788
   79PA     C16 3356   4.621   4.000   5.943
   79PA     H6R 3357   4.547   3.937   5.889
   79PA     H6S 3358   4.687   3.931   6.001
   79PA     C15 3359   4.553   4.096   6.040
   79PA     H5R 3360   4.490   4.172   5.990
   79PA     H5S 3361   4.484   4.036   6.095
   79PA     C14 3362   4.642   4.145   6.154
   79PA     H4R 3363   4.702   4.059   6.191
   79PA     H4S 3364   4.707   4.224   6.113
   79PA     C13 3365   4.572   4.206   6.274
   79PA     H3R 3366   4.518   4.127   6.332
   79PA     H3S 3367   4.650   4.239   6.345
   79PA     C12 3368   4.482   4.327   6.233
   79PA     H2R 3369   4.543   4.403   6.181
   79PA     H2S 3370   4.396   4.302   6.167
   80PC     C11 3371   4.423   4.392   6.354
   80PC     O12 3372   4.347   4.487   6.355
   80PC     O11 3373   4.465   4.324   6.458
   80PC      C1 3374   4.396   4.344   6.579
   80PC      HR 3375   4.363   4.450   6.589
   80PC      HS 3376   4.304   4.285   6.572
   80PC      C2 3377   4.473   4.293   6.705
   80PC      HX 3378   4.467   4.182   6.712
   80PC      C3 3379   4.430   4.339   6.841
   80PC      HA 3380   4.421   4.450   6.822
   80PC      HB 3381   4.339   4.285   6.861
   80PC     O31 3382   4.503   4.306   6.958
   80PC     P31 3383   4.545   4.413   7.066
   80PC     O32 3384   4.639   4.313   7.145
   80PC     C31 3385   4.581   4.185   7.176
   80PC     H1A 3386   4.615   4.156   7.277
   80PC     H1B 3387   4.469   4.184   7.181
   80PC     C32 3388   4.621   4.077   7.071
   80PC     H2A 3389   4.582   3.983   7.105
   80PC     H2B 3390   4.566   4.103   6.980
   80PC     N31 3391   4.770   4.067   7.039
   80PC     C33 3392   4.851   4.103   7.160
   80PC     H3A 3393   4.933   4.169   7.133
   80PC     H3B 3394   4.789   4.163   7.228
   80PC     H3C 3395   4.887   4.016   7.212
   80PC     C34 3396   4.805   3.931   6.994
   80PC     H4A 3397   4.763   3.909   6.897
   80PC     H4B 3398   4.913   3.923   6.985
   80PC     H4C 3399   4.771   3.857   7.066
   80PC     C35 3400   4.798   4.162   6.927
   80PC     H5A 3401   4.741   4.135   6.838
   80PC     H5B 3402   4.903   4.162   6.900
   80PC     H5C 3403   4.765   4.262   6.954
   80PC     O33 3404   4.620   4.521   6.999
   80PC     O34 3405   4.435   4.452   7.158
   80PC     O21 3406   4.599   4.350   6.707
   80PC     C21 3407   4.682   4.279   6.649
   80PC     O22 3408   4.668   4.165   6.605
   81OL     C12 3409   4.802   4.365   6.652
   81OL     H2R 3410   4.885   4.302   6.617
   81OL     H2S 3411   4.819   4.400   6.757
   81OL     C13 3412   4.773   4.486   6.563
   81OL     H3R 3413   4.706   4.560   6.613
   81OL     H3S 3414   4.718   4.454   6.471
   81OL     C14 3415   4.904   4.549   6.522
   81OL     H4R 3416   4.971   4.553   6.611
   81OL     H4S 3417   4.885   4.653   6.491
   81OL     C15 3418   4.969   4.472   6.407
   81OL     H5R 3419   4.978   4.364   6.433
   81OL     H5S 3420   5.072   4.512   6.393
   81OL     C16 3421   4.891   4.483   6.275
   81OL     H6R 3422   4.855   4.588   6.265
   81OL     H6S 3423   4.801   4.418   6.277
   81OL     C17 3424   4.977   4.442   6.156
   81OL     H7R 3425   5.013   4.338   6.172
   81OL     H7S 3426   5.067   4.509   6.151
   81OL     C18 3427   4.906   4.443   6.020
   81OL     H8R 3428   4.821   4.372   6.022
   81OL     H8S 3429   4.978   4.407   5.943
   81OL     C19 3430   4.863   4.579   5.978
   81OL     H9R 3431   4.918   4.662   6.024
   81OL    C110 3432   4.759   4.604   5.898
   81OL    H10R 3433   4.741   4.708   5.874
   81OL    C111 3434   4.664   4.509   5.833
   81OL    H11R 3435   4.676   4.406   5.871
   81OL    H11S 3436   4.681   4.507   5.723
   81OL    C112 3437   4.518   4.550   5.856
   81OL    H12R 3438   4.495   4.632   5.785
   81OL    H12S 3439   4.502   4.593   5.958
   81OL    C113 3440   4.421   4.430   5.840
   81OL    H13R 3441   4.318   4.462   5.860
   81OL    H13S 3442   4.446   4.357   5.920
   81OL    C114 3443   4.420   4.357   5.704
   81OL    H14R 3444   4.519   4.307   5.693
   81OL    H14S 3445   4.414   4.430   5.622
   81OL    C115 3446   4.302   4.259   5.684
   81OL    H15R 3447   4.207   4.313   5.704
   81OL    H15S 3448   4.319   4.185   5.765
   81OL    C116 3449   4.290   4.171   5.555
   81OL    H16R 3450   4.210   4.095   5.567
   81OL    H16S 3451   4.391   4.126   5.536
   81OL    C117 3452   4.249   4.234   5.423
   81OL    H17R 3453   4.301   4.199   5.332
   81OL    H17S 3454   4.306   4.321   5.453
   81OL    C118 3455   4.101   4.270   5.395
   81OL    H18R 3456   4.031   4.198   5.352
   81OL    H18S 3457   4.098   4.346   5.314
   81OL    H18T 3458   4.057   4.317   5.486
   82PA    C116 3459   2.617  -0.237   5.148
   82PA    H16R 3460   2.544  -0.209   5.226
   82PA    H16S 3461   2.604  -0.340   5.110
   82PA    H16T 3462   2.585  -0.175   5.067
   82PA    C115 3463   2.754  -0.177   5.150
   82PA    H15R 3464   2.824  -0.250   5.194
   82PA    H15S 3465   2.785  -0.152   5.045
   82PA    C114 3466   2.754  -0.046   5.225
   82PA    H14R 3467   2.837   0.024   5.224
   82PA    H14S 3468   2.704   0.027   5.161
   82PA    C113 3469   2.736  -0.063   5.377
   82PA    H13R 3470   2.651  -0.014   5.427
   82PA    H13S 3471   2.712  -0.169   5.396
   82PA    C112 3472   2.854   0.004   5.448
   82PA    H12R 3473   2.949  -0.035   5.406
   82PA    H12S 3474   2.853   0.114   5.431
   82PA    C111 3475   2.851  -0.026   5.596
   82PA    H11R 3476   2.918   0.043   5.650
   82PA    H11S 3477   2.748  -0.014   5.636
   82PA    C110 3478   2.902  -0.169   5.605
   82PA    H10R 3479   2.850  -0.233   5.530
   82PA    H10S 3480   3.008  -0.165   5.575
   82PA     C19 3481   2.886  -0.233   5.740
   82PA     H9R 3482   2.785  -0.213   5.783
   82PA     H9S 3483   2.901  -0.343   5.729
   82PA     C18 3484   2.993  -0.185   5.833
   82PA     H8R 3485   3.085  -0.234   5.796
   82PA     H8S 3486   3.008  -0.074   5.828
   82PA     C17 3487   2.962  -0.230   5.974
   82PA     H7R 3488   2.862  -0.192   6.004
   82PA     H7S 3489   2.964  -0.341   5.976
   82PA     C16 3490   3.067  -0.176   6.067
   82PA     H6R 3491   3.158  -0.224   6.027
   82PA     H6S 3492   3.070  -0.065   6.062
   82PA     C15 3493   3.055  -0.215   6.211
   82PA     H5R 3494   2.948  -0.207   6.241
   82PA     H5S 3495   3.086  -0.323   6.211
   82PA     C14 3496   3.142  -0.131   6.308
   82PA     H4R 3497   3.247  -0.165   6.289
   82PA     H4S 3498   3.133  -0.023   6.292
   82PA     C13 3499   3.119  -0.156   6.458
   82PA     H3R 3500   3.138  -0.262   6.440
   82PA     H3S 3501   3.203  -0.123   6.522
   82PA     C12 3502   2.980  -0.123   6.527
   82PA     H2R 3503   2.968  -0.014   6.531
   82PA     H2S 3504   2.899  -0.156   6.460
   83PC     C11 3505   2.942  -0.179   6.672
   83PC     O12 3506   2.950  -0.292   6.718
   83PC     O11 3507   2.882  -0.085   6.741
   83PC      C1 3508   2.857  -0.141   6.873
   83PC      HR 3509   2.758  -0.110   6.904
   83PC      HS 3510   2.847  -0.252   6.892
   83PC      C2 3511   2.967  -0.093   6.968
   83PC      HX 3512   3.049  -0.169   6.961
   83PC      C3 3513   2.911  -0.093   7.105
   83PC      HA 3514   2.839  -0.178   7.097
   83PC      HB 3515   2.997  -0.112   7.173
   83PC     O31 3516   2.848   0.031   7.136
   83PC     P31 3517   2.733   0.027   7.240
   83PC     O32 3518   2.642   0.137   7.176
   83PC     C31 3519   2.559   0.108   7.065
   83PC     H1A 3520   2.503   0.012   7.076
   83PC     H1B 3521   2.484   0.189   7.060
   83PC     C32 3522   2.640   0.103   6.933
   83PC     H2A 3523   2.723   0.037   6.946
   83PC     H2B 3524   2.574   0.060   6.859
   83PC     N31 3525   2.688   0.233   6.878
   83PC     C33 3526   2.568   0.290   6.819
   83PC     H3A 3527   2.512   0.228   6.749
   83PC     H3B 3528   2.498   0.324   6.894
   83PC     H3C 3529   2.598   0.373   6.757
   83PC     C34 3530   2.744   0.327   6.981
   83PC     H4A 3531   2.841   0.297   7.014
   83PC     H4B 3532   2.750   0.430   6.946
   83PC     H4C 3533   2.682   0.326   7.071
   83PC     C35 3534   2.787   0.218   6.768
   83PC     H5A 3535   2.815   0.315   6.727
   83PC     H5B 3536   2.749   0.155   6.688
   83PC     H5C 3537   2.876   0.171   6.809
   83PC     O33 3538   2.673  -0.106   7.233
   83PC     O34 3539   2.773   0.076   7.373
   83PC     O21 3540   3.010   0.038   6.933
   83PC     C21 3541   3.065   0.117   7.021
   83PC     O22 3542   3.095   0.101   7.138
   84OL     C12 3543   3.148   0.209   6.935
   84OL     H2R 3544   3.253   0.213   6.974
   84OL     H2S 3545   3.086   0.290   6.971
   84OL     C13 3546   3.151   0.194   6.780
   84OL     H3R 3547   3.045   0.208   6.752
   84OL     H3S 3548   3.185   0.095   6.746
   84OL     C14 3549   3.238   0.296   6.706
   84OL     H4R 3550   3.332   0.324   6.759
   84OL     H4S 3551   3.175   0.385   6.688
   84OL     C15 3552   3.258   0.291   6.558
   84OL     H5R 3553   3.322   0.204   6.539
   84OL     H5S 3554   3.313   0.386   6.531
   84OL     C16 3555   3.121   0.287   6.488
   84OL     H6R 3556   3.067   0.197   6.524
   84OL     H6S 3557   3.143   0.277   6.380
   84OL     C17 3558   3.021   0.405   6.505
   84OL     H7R 3559   3.080   0.497   6.497
   84OL     H7S 3560   2.975   0.408   6.606
   84OL     C18 3561   2.911   0.404   6.398
   84OL     H8R 3562   2.957   0.430   6.300
   84OL     H8S 3563   2.837   0.484   6.421
   84OL     C19 3564   2.840   0.270   6.392
   84OL     H9R 3565   2.787   0.246   6.485
   84OL    C110 3566   2.836   0.177   6.294
   84OL    H10R 3567   2.781   0.084   6.315
   84OL    C111 3568   2.901   0.176   6.157
   84OL    H11R 3569   2.925   0.073   6.124
   84OL    H11S 3570   2.995   0.237   6.157
   84OL    C112 3571   2.816   0.236   6.044
   84OL    H12R 3572   2.827   0.341   6.075
   84OL    H12S 3573   2.710   0.203   6.041
   84OL    C113 3574   2.878   0.229   5.905
   84OL    H13R 3575   2.860   0.132   5.856
   84OL    H13S 3576   2.987   0.243   5.924
   84OL    C114 3577   2.835   0.338   5.809
   84OL    H14R 3578   2.893   0.426   5.840
   84OL    H14S 3579   2.727   0.362   5.801
   84OL    C115 3580   2.895   0.327   5.675
   84OL    H15R 3581   2.855   0.418   5.626
   84OL    H15S 3582   2.854   0.239   5.622
   84OL    C116 3583   3.047   0.327   5.692
   84OL    H16R 3584   3.085   0.240   5.750
   84OL    H16S 3585   3.089   0.422   5.733
   84OL    C117 3586   3.101   0.317   5.556
   84OL    H17R 3587   3.066   0.215   5.528
   84OL    H17S 3588   3.212   0.310   5.557
   84OL    C118 3589   3.044   0.436   5.473
   84OL    H18R 3590   3.039   0.425   5.365
   84OL    H18S 3591   3.107   0.526   5.484
   84OL    H18T 3592   2.936   0.449   5.468
   85PA    C116 3593   1.101   2.709   5.427
   85PA    H16R 3594   1.003   2.717   5.378
   85PA    H16S 3595   1.091   2.643   5.514
   85PA    H16T 3596   1.165   2.658   5.353
   85PA    C115 3597   1.155   2.848   5.466
   85PA    H15R 3598   1.258   2.835   5.506
   85PA    H15S 3599   1.164   2.909   5.372
   85PA    C114 3600   1.078   2.931   5.572
   85PA    H14R 3601   1.094   2.893   5.674
   85PA    H14S 3602   1.108   3.038   5.562
   85PA    C113 3603   0.930   2.930   5.547
   85PA    H13R 3604   0.942   2.972   5.446
   85PA    H13S 3605   0.889   2.827   5.555
   85PA    C112 3606   0.839   3.038   5.602
   85PA    H12R 3607   0.858   3.133   5.550
   85PA    H12S 3608   0.732   3.020   5.593
   85PA    C111 3609   0.848   3.049   5.747
   85PA    H11R 3610   0.951   3.074   5.775
   85PA    H11S 3611   0.774   3.127   5.776
   85PA    C110 3612   0.806   2.919   5.809
   85PA    H10R 3613   0.702   2.910   5.781
   85PA    H10S 3614   0.858   2.827   5.774
   85PA     C19 3615   0.810   2.949   5.955
   85PA     H9R 3616   0.913   2.979   5.981
   85PA     H9S 3617   0.736   3.031   5.973
   85PA     C18 3618   0.776   2.835   6.041
   85PA     H8R 3619   0.808   2.851   6.145
   85PA     H8S 3620   0.668   2.838   6.051
   85PA     C17 3621   0.835   2.704   5.994
   85PA     H7R 3622   0.820   2.638   6.078
   85PA     H7S 3623   0.802   2.654   5.900
   85PA     C16 3624   0.981   2.706   6.004
   85PA     H6R 3625   1.025   2.779   5.934
   85PA     H6S 3626   1.004   2.732   6.110
   85PA     C15 3627   1.030   2.568   5.975
   85PA     H5R 3628   0.988   2.496   6.049
   85PA     H5S 3629   0.989   2.535   5.876
   85PA     C14 3630   1.180   2.587   5.972
   85PA     H4R 3631   1.235   2.511   5.917
   85PA     H4S 3632   1.198   2.670   5.900
   85PA     C13 3633   1.246   2.616   6.110
   85PA     H3R 3634   1.352   2.630   6.079
   85PA     H3S 3635   1.206   2.711   6.150
   85PA     C12 3636   1.260   2.518   6.231
   85PA     H2R 3637   1.242   2.415   6.222
   85PA     H2S 3638   1.365   2.514   6.266
   86PC     C11 3639   1.160   2.519   6.344
   86PC     O12 3640   1.073   2.436   6.366
   86PC     O11 3641   1.202   2.609   6.419
   86PC      C1 3642   1.141   2.608   6.546
   86PC      HR 3643   1.043   2.657   6.535
   86PC      HS 3644   1.129   2.505   6.589
   86PC      C2 3645   1.236   2.687   6.633
   86PC      HX 3646   1.332   2.631   6.648
   86PC      C3 3647   1.171   2.705   6.769
   86PC      HA 3648   1.063   2.731   6.752
   86PC      HB 3649   1.176   2.607   6.821
   86PC     O31 3650   1.241   2.802   6.845
   86PC     P31 3651   1.171   2.941   6.879
   86PC     O32 3652   1.048   2.883   6.964
   86PC     C31 3653   1.069   2.795   7.074
   86PC     H1A 3654   0.997   2.710   7.064
   86PC     H1B 3655   1.171   2.749   7.074
   86PC     C32 3656   1.047   2.867   7.210
   86PC     H2A 3657   1.065   2.795   7.289
   86PC     H2B 3658   1.126   2.941   7.216
   86PC     N31 3659   0.911   2.935   7.233
   86PC     C33 3660   0.797   2.844   7.200
   86PC     H3A 3661   0.797   2.754   7.260
   86PC     H3B 3662   0.702   2.895   7.216
   86PC     H3C 3663   0.804   2.818   7.094
   86PC     C34 3664   0.897   2.984   7.373
   86PC     H4A 3665   0.890   2.902   7.443
   86PC     H4B 3666   0.976   3.054   7.398
   86PC     H4C 3667   0.804   3.040   7.380
   86PC     C35 3668   0.901   3.055   7.143
   86PC     H5A 3669   0.917   3.027   7.039
   86PC     H5B 3670   0.979   3.129   7.163
   86PC     H5C 3671   0.805   3.106   7.152
   86PC     O33 3672   1.263   3.015   6.966
   86PC     O34 3673   1.122   3.004   6.755
   86PC     O21 3674   1.259   2.815   6.573
   86PC     C21 3675   1.363   2.819   6.494
   86PC     O22 3676   1.444   2.731   6.474
   87OL     C12 3677   1.359   2.951   6.421
   87OL     H2R 3678   1.373   3.032   6.495
   87OL     H2S 3679   1.263   2.965   6.367
   87OL     C13 3680   1.471   2.951   6.319
   87OL     H3R 3681   1.562   2.913   6.371
   87OL     H3S 3682   1.484   3.057   6.291
   87OL     C14 3683   1.442   2.871   6.191
   87OL     H4R 3684   1.351   2.911   6.141
   87OL     H4S 3685   1.431   2.764   6.216
   87OL     C15 3686   1.556   2.883   6.093
   87OL     H5R 3687   1.642   2.855   6.152
   87OL     H5S 3688   1.560   2.986   6.050
   87OL     C16 3689   1.583   2.777   5.992
   87OL     H6R 3690   1.576   2.678   6.041
   87OL     H6S 3691   1.685   2.782   5.947
   87OL     C17 3692   1.495   2.805   5.876
   87OL     H7R 3693   1.512   2.912   5.846
   87OL     H7S 3694   1.390   2.794   5.909
   87OL     C18 3695   1.539   2.717   5.763
   87OL     H8R 3696   1.635   2.755   5.725
   87OL     H8S 3697   1.465   2.736   5.683
   87OL     C19 3698   1.560   2.575   5.810
   87OL     H9R 3699   1.650   2.553   5.871
   87OL    C110 3700   1.485   2.474   5.775
   87OL    H10R 3701   1.506   2.370   5.804
   87OL    C111 3702   1.372   2.497   5.683
   87OL    H11R 3703   1.348   2.599   5.649
   87OL    H11S 3704   1.277   2.477   5.726
   87OL    C112 3705   1.392   2.397   5.575
   87OL    H12R 3706   1.299   2.424   5.521
   87OL    H12S 3707   1.391   2.294   5.611
   87OL    C113 3708   1.504   2.419   5.479
   87OL    H13R 3709   1.510   2.352   5.390
   87OL    H13S 3710   1.595   2.382   5.528
   87OL    C114 3711   1.471   2.564   5.433
   87OL    H14R 3712   1.530   2.631   5.496
   87OL    H14S 3713   1.367   2.597   5.455
   87OL    C115 3714   1.471   2.593   5.284
   87OL    H15R 3715   1.416   2.524   5.216
   87OL    H15S 3716   1.570   2.559   5.254
   87OL    C116 3717   1.419   2.736   5.249
   87OL    H16R 3718   1.314   2.749   5.276
   87OL    H16S 3719   1.400   2.718   5.142
   87OL    C117 3720   1.500   2.867   5.302
   87OL    H17R 3721   1.606   2.871   5.283
   87OL    H17S 3722   1.511   2.853   5.410
   87OL    C118 3723   1.493   3.017   5.253
   87OL    H18R 3724   1.395   3.066   5.251
   87OL    H18S 3725   1.528   3.039   5.152
   87OL    H18T 3726   1.580   3.074   5.292
   88PA    C116 3727   1.505   0.348   5.162
   88PA    H16R 3728   1.503   0.414   5.073
   88PA    H16S 3729   1.421   0.380   5.227
   88PA    H16T 3730   1.487   0.245   5.127
   88PA    C115 3731   1.641   0.355   5.236
   88PA    H15R 3732   1.658   0.259   5.288
   88PA    H15S 3733   1.723   0.367   5.163
   88PA    C114 3734   1.649   0.468   5.338
   88PA    H14R 3735   1.664   0.562   5.285
   88PA    H14S 3736   1.555   0.467   5.398
   88PA    C113 3737   1.766   0.482   5.434
   88PA    H13R 3738   1.861   0.475   5.377
   88PA    H13S 3739   1.762   0.584   5.479
   88PA    C112 3740   1.746   0.380   5.543
   88PA    H12R 3741   1.645   0.393   5.588
   88PA    H12S 3742   1.750   0.281   5.494
   88PA    C111 3743   1.851   0.388   5.652
   88PA    H11R 3744   1.860   0.286   5.697
   88PA    H11S 3745   1.949   0.414   5.605
   88PA    C110 3746   1.820   0.485   5.767
   88PA    H10R 3747   1.806   0.589   5.727
   88PA    H10S 3748   1.728   0.455   5.821
   88PA     C19 3749   1.941   0.484   5.860
   88PA     H9R 3750   1.971   0.382   5.891
   88PA     H9S 3751   2.016   0.512   5.787
   88PA     C18 3752   1.943   0.579   5.981
   88PA     H8R 3753   2.038   0.563   6.039
   88PA     H8S 3754   1.942   0.686   5.951
   88PA     C17 3755   1.825   0.553   6.073
   88PA     H7R 3756   1.834   0.615   6.165
   88PA     H7S 3757   1.732   0.582   6.020
   88PA     C16 3758   1.811   0.407   6.114
   88PA     H6R 3759   1.757   0.353   6.032
   88PA     H6S 3760   1.907   0.354   6.128
   88PA     C15 3761   1.733   0.401   6.245
   88PA     H5R 3762   1.797   0.416   6.334
   88PA     H5S 3763   1.652   0.478   6.244
   88PA     C14 3764   1.660   0.272   6.252
   88PA     H4R 3765   1.603   0.283   6.158
   88PA     H4S 3766   1.725   0.182   6.247
   88PA     C13 3767   1.547   0.266   6.351
   88PA     H3R 3768   1.477   0.350   6.333
   88PA     H3S 3769   1.487   0.178   6.328
   88PA     C12 3770   1.595   0.257   6.494
   88PA     H2R 3771   1.652   0.349   6.518
   88PA     H2S 3772   1.504   0.250   6.557
   89PC     C11 3773   1.681   0.133   6.520
   89PC     O12 3774   1.727   0.052   6.442
   89PC     O11 3775   1.689   0.122   6.653
   89PC      C1 3776   1.785   0.026   6.701
   89PC      HR 3777   1.741  -0.027   6.787
   89PC      HS 3778   1.815  -0.051   6.625
   89PC      C2 3779   1.912   0.099   6.750
   89PC      HX 3780   1.992   0.024   6.766
   89PC      C3 3781   1.880   0.172   6.884
   89PC      HA 3782   1.794   0.237   6.856
   89PC      HB 3783   1.844   0.095   6.955
   89PC     O31 3784   1.989   0.243   6.945
   89PC     P31 3785   1.977   0.402   6.959
   89PC     O32 3786   1.839   0.413   7.038
   89PC     C31 3787   1.814   0.356   7.165
   89PC     H1A 3788   1.849   0.251   7.171
   89PC     H1B 3789   1.871   0.414   7.241
   89PC     C32 3790   1.661   0.368   7.201
   89PC     H2A 3791   1.653   0.357   7.307
   89PC     H2B 3792   1.632   0.470   7.178
   89PC     N31 3793   1.561   0.275   7.132
   89PC     C33 3794   1.557   0.305   6.986
   89PC     H3A 3795   1.485   0.242   6.935
   89PC     H3B 3796   1.530   0.409   6.971
   89PC     H3C 3797   1.656   0.291   6.944
   89PC     C34 3798   1.602   0.134   7.148
   89PC     H4A 3799   1.706   0.121   7.118
   89PC     H4B 3800   1.594   0.108   7.252
   89PC     H4C 3801   1.535   0.066   7.097
   89PC     C35 3802   1.421   0.290   7.186
   89PC     H5A 3803   1.416   0.276   7.293
   89PC     H5B 3804   1.353   0.216   7.144
   89PC     H5C 3805   1.379   0.388   7.164
   89PC     O33 3806   2.087   0.463   7.036
   89PC     O34 3807   1.951   0.457   6.823
   89PC     O21 3808   1.946   0.192   6.649
   89PC     C21 3809   2.069   0.230   6.651
   89PC     O22 3810   2.162   0.177   6.710
   90OL     C12 3811   2.081   0.350   6.563
   90OL     H2R 3812   2.101   0.434   6.635
   90OL     H2S 3813   1.991   0.376   6.505
   90OL     C13 3814   2.202   0.329   6.474
   90OL     H3R 3815   2.284   0.268   6.519
   90OL     H3S 3816   2.219   0.436   6.483
   90OL     C14 3817   2.198   0.311   6.322
   90OL     H4R 3818   2.304   0.312   6.284
   90OL     H4S 3819   2.146   0.396   6.273
   90OL     C15 3820   2.140   0.178   6.286
   90OL     H5R 3821   2.033   0.180   6.318
   90OL     H5S 3822   2.193   0.100   6.346
   90OL     C16 3823   2.152   0.146   6.137
   90OL     H6R 3824   2.260   0.136   6.110
   90OL     H6S 3825   2.110   0.230   6.079
   90OL     C17 3826   2.078   0.014   6.111
   90OL     H7R 3827   2.000   0.003   6.190
   90OL     H7S 3828   2.153  -0.067   6.126
   90OL     C18 3829   2.008   0.002   5.975
   90OL     H8R 3830   2.067   0.056   5.898
   90OL     H8S 3831   1.909   0.054   5.982
   90OL     C19 3832   1.986  -0.143   5.938
   90OL     H9R 3833   1.985  -0.212   6.024
   90OL    C110 3834   1.978  -0.192   5.813
   90OL    H10R 3835   1.956  -0.300   5.800
   90OL    C111 3836   1.988  -0.113   5.684
   90OL    H11R 3837   2.030  -0.177   5.604
   90OL    H11S 3838   2.055  -0.025   5.697
   90OL    C112 3839   1.853  -0.059   5.635
   90OL    H12R 3840   1.829   0.036   5.687
   90OL    H12S 3841   1.781  -0.138   5.665
   90OL    C113 3842   1.829  -0.044   5.483
   90OL    H13R 3843   1.909   0.016   5.435
   90OL    H13S 3844   1.733   0.013   5.471
   90OL    C114 3845   1.811  -0.180   5.415
   90OL    H14R 3846   1.781  -0.255   5.491
   90OL    H14S 3847   1.908  -0.216   5.376
   90OL    C115 3848   1.701  -0.184   5.306
   90OL    H15R 3849   1.608  -0.134   5.340
   90OL    H15S 3850   1.676  -0.291   5.286
   90OL    C116 3851   1.745  -0.122   5.176
   90OL    H16R 3852   1.832  -0.183   5.140
   90OL    H16S 3853   1.784  -0.020   5.190
   90OL    C117 3854   1.638  -0.124   5.063
   90OL    H17R 3855   1.652  -0.222   5.010
   90OL    H17S 3856   1.666  -0.037   4.998
   90OL    C118 3857   1.491  -0.097   5.069
   90OL    H18R 3858   1.441  -0.155   5.149
   90OL    H18S 3859   1.450  -0.126   4.969
   90OL    H18T 3860   1.476   0.013   5.080
   91PA    C116 3861   0.056   1.643   5.263
   91PA    H16R 3862   0.067   1.726   5.191
   91PA    H16S 3863  -0.007   1.564   5.217
   91PA    H16T 3864   0.157   1.600   5.282
   91PA    C115 3865  -0.006   1.690   5.393
   91PA    H15R 3866  -0.101   1.745   5.375
   91PA    H15S 3867  -0.031   1.600   5.452
   91PA    C114 3868   0.086   1.780   5.476
   91PA    H14R 3869   0.185   1.732   5.489
   91PA    H14S 3870   0.103   1.876   5.421
   91PA    C113 3871   0.026   1.814   5.613
   91PA    H13R 3872   0.097   1.880   5.666
   91PA    H13S 3873  -0.067   1.870   5.593
   91PA    C112 3874  -0.011   1.695   5.703
   91PA    H12R 3875  -0.076   1.732   5.785
   91PA    H12S 3876  -0.071   1.622   5.646
   91PA    C111 3877   0.111   1.626   5.767
   91PA    H11R 3878   0.178   1.592   5.685
   91PA    H11S 3879   0.164   1.701   5.829
   91PA    C110 3880   0.075   1.506   5.857
   91PA    H10R 3881  -0.014   1.529   5.918
   91PA    H10S 3882   0.045   1.425   5.787
   91PA     C19 3883   0.187   1.451   5.950
   91PA     H9R 3884   0.160   1.347   5.975
   91PA     H9S 3885   0.282   1.439   5.895
   91PA     C18 3886   0.212   1.529   6.082
   91PA     H8R 3887   0.286   1.610   6.070
   91PA     H8S 3888   0.115   1.573   6.115
   91PA     C17 3889   0.256   1.435   6.196
   91PA     H7R 3890   0.165   1.377   6.206
   91PA     H7S 3891   0.340   1.368   6.165
   91PA     C16 3892   0.275   1.489   6.338
   91PA     H6R 3893   0.344   1.419   6.391
   91PA     H6S 3894   0.324   1.589   6.334
   91PA     C15 3895   0.144   1.499   6.420
   91PA     H5R 3896   0.070   1.558   6.363
   91PA     H5S 3897   0.091   1.404   6.433
   91PA     C14 3898   0.163   1.554   6.562
   91PA     H4R 3899   0.184   1.662   6.551
   91PA     H4S 3900   0.066   1.541   6.617
   91PA     C13 3901   0.275   1.492   6.647
   91PA     H3R 3902   0.259   1.383   6.661
   91PA     H3S 3903   0.375   1.505   6.600
   91PA     C12 3904   0.278   1.559   6.786
   91PA     H2R 3905   0.177   1.572   6.830
   91PA     H2S 3906   0.336   1.493   6.852
   92PC     C11 3907   0.349   1.695   6.783
   92PC     O12 3908   0.383   1.760   6.686
   92PC     O11 3909   0.364   1.729   6.910
   92PC      C1 3910   0.399   1.866   6.927
   92PC      HR 3911   0.445   1.874   7.028
   92PC      HS 3912   0.476   1.901   6.854
   92PC      C2 3913   0.273   1.956   6.929
   92PC      HX 3914   0.308   2.057   6.936
   92PC      C3 3915   0.181   1.915   7.046
   92PC      HA 3916   0.239   1.869   7.128
   92PC      HB 3917   0.137   2.011   7.085
   92PC     O31 3918   0.078   1.827   6.999
   92PC     P31 3919  -0.046   1.806   7.092
   92PC     O32 3920  -0.114   1.694   7.010
   92PC     C31 3921  -0.253   1.701   6.987
   92PC     H1A 3922  -0.311   1.743   7.073
   92PC     H1B 3923  -0.273   1.763   6.897
   92PC     C32 3924  -0.297   1.558   6.963
   92PC     H2A 3925  -0.404   1.559   6.948
   92PC     H2B 3926  -0.251   1.530   6.868
   92PC     N31 3927  -0.262   1.454   7.069
   92PC     C33 3928  -0.114   1.432   7.080
   92PC     H3A 3929  -0.066   1.527   7.103
   92PC     H3B 3930  -0.090   1.362   7.159
   92PC     H3C 3931  -0.071   1.396   6.988
   92PC     C34 3932  -0.316   1.485   7.203
   92PC     H4A 3933  -0.268   1.576   7.238
   92PC     H4B 3934  -0.424   1.495   7.201
   92PC     H4C 3935  -0.292   1.405   7.272
   92PC     C35 3936  -0.326   1.333   7.028
   92PC     H5A 3937  -0.307   1.247   7.091
   92PC     H5B 3938  -0.283   1.307   6.931
   92PC     H5C 3939  -0.433   1.345   7.013
   92PC     O33 3940   0.004   1.751   7.221
   92PC     O34 3941  -0.135   1.923   7.095
   92PC     O21 3942   0.204   1.951   6.806
   92PC     C21 3943   0.093   2.025   6.805
   92PC     O22 3944   0.049   2.097   6.891
   93OL     C12 3945   0.052   2.034   6.662
   93OL     H2R 3946   0.135   2.086   6.618
   93OL     H2S 3947  -0.040   2.091   6.647
   93OL     C13 3948   0.078   1.909   6.583
   93OL     H3R 3949   0.064   1.822   6.650
   93OL     H3S 3950   0.186   1.908   6.549
   93OL     C14 3951  -0.014   1.900   6.464
   93OL     H4R 3952  -0.118   1.887   6.500
   93OL     H4S 3953   0.021   1.810   6.410
   93OL     C15 3954  -0.015   2.018   6.367
   93OL     H5R 3955   0.089   2.057   6.356
   93OL     H5S 3956  -0.072   2.107   6.399
   93OL     C16 3957  -0.078   1.964   6.237
   93OL     H6R 3958  -0.179   1.923   6.252
   93OL     H6S 3959  -0.013   1.880   6.199
   93OL     C17 3960  -0.088   2.072   6.133
   93OL     H7R 3961   0.012   2.107   6.153
   93OL     H7S 3962  -0.137   2.168   6.154
   93OL     C18 3963  -0.109   2.017   5.991
   93OL     H8R 3964  -0.082   1.911   5.972
   93OL     H8S 3965  -0.044   2.072   5.921
   93OL     C19 3966  -0.247   2.040   5.954
   93OL     H9R 3967  -0.322   1.994   6.020
   93OL    C110 3968  -0.275   2.127   5.859
   93OL    H10R 3969  -0.381   2.134   5.834
   93OL    C111 3970  -0.173   2.211   5.781
   93OL    H11R 3971  -0.082   2.240   5.838
   93OL    H11S 3972  -0.214   2.312   5.764
   93OL    C112 3973  -0.119   2.140   5.653
   93OL    H12R 3974  -0.066   2.048   5.674
   93OL    H12S 3975  -0.051   2.214   5.601
   93OL    C113 3976  -0.232   2.097   5.563
   93OL    H13R 3977  -0.237   2.204   5.545
   93OL    H13S 3978  -0.326   2.064   5.610
   93OL    C114 3979  -0.232   2.021   5.429
   93OL    H14R 3980  -0.335   2.047   5.394
   93OL    H14S 3981  -0.250   1.914   5.449
   93OL    C115 3982  -0.127   2.052   5.319
   93OL    H15R 3983  -0.024   2.057   5.358
   93OL    H15S 3984  -0.126   2.149   5.266
   93OL    C116 3985  -0.147   1.965   5.199
   93OL    H16R 3986  -0.215   2.009   5.124
   93OL    H16S 3987  -0.189   1.867   5.227
   93OL    C117 3988  -0.029   1.972   5.110
   93OL    H17R 3989   0.060   1.945   5.170
   93OL    H17S 3990  -0.024   2.079   5.079
   93OL    C118 3991  -0.061   1.885   4.990
   93OL    H18R 3992   0.018   1.893   4.914
   93OL    H18S 3993  -0.158   1.917   4.944
   93OL    H18T 3994  -0.074   1.781   5.026
   94PA    C116 3995   1.340   4.109   5.405
   94PA    H16R 3996   1.427   4.177   5.404
   94PA    H16S 3997   1.328   4.066   5.303
   94PA    H16T 3998   1.361   4.025   5.475
   94PA    C115 3999   1.211   4.181   5.447
   94PA    H15R 4000   1.195   4.272   5.385
   94PA    H15S 4001   1.127   4.111   5.425
   94PA    C114 4002   1.203   4.218   5.597
   94PA    H14R 4003   1.102   4.189   5.633
   94PA    H14S 4004   1.277   4.157   5.654
   94PA    C113 4005   1.223   4.367   5.630
   94PA    H13R 4006   1.332   4.389   5.627
   94PA    H13S 4007   1.173   4.429   5.553
   94PA    C112 4008   1.165   4.406   5.768
   94PA    H12R 4009   1.055   4.391   5.766
   94PA    H12S 4010   1.206   4.337   5.845
   94PA    C111 4011   1.194   4.551   5.814
   94PA    H11R 4012   1.099   4.599   5.844
   94PA    H11S 4013   1.256   4.545   5.905
   94PA    C110 4014   1.261   4.642   5.709
   94PA    H10R 4015   1.351   4.594   5.666
   94PA    H10S 4016   1.187   4.657   5.627
   94PA     C19 4017   1.303   4.782   5.758
   94PA     H9R 4018   1.313   4.839   5.664
   94PA     H9S 4019   1.224   4.832   5.817
   94PA     C18 4020   1.440   4.791   5.828
   94PA     H8R 4021   1.520   4.756   5.758
   94PA     H8S 4022   1.462   4.898   5.851
   94PA     C17 4023   1.449   4.710   5.957
   94PA     H7R 4024   1.352   4.708   6.010
   94PA     H7S 4025   1.476   4.606   5.930
   94PA     C16 4026   1.554   4.761   6.054
   94PA     H6R 4027   1.652   4.757   6.001
   94PA     H6S 4028   1.531   4.867   6.080
   94PA     C15 4029   1.563   4.673   6.179
   94PA     H5R 4030   1.479   4.600   6.176
   94PA     H5S 4031   1.657   4.615   6.173
   94PA     C14 4032   1.549   4.746   6.314
   94PA     H4R 4033   1.626   4.821   6.330
   94PA     H4S 4034   1.454   4.802   6.318
   94PA     C13 4035   1.570   4.651   6.432
   94PA     H3R 4036   1.487   4.578   6.433
   94PA     H3S 4037   1.663   4.593   6.411
   94PA     C12 4038   1.581   4.721   6.569
   94PA     H2R 4039   1.596   4.642   6.646
   94PA     H2S 4040   1.661   4.794   6.586
   95PC     C11 4041   1.454   4.799   6.598
   95PC     O12 4042   1.439   4.919   6.582
   95PC     O11 4043   1.371   4.715   6.651
   95PC      C1 4044   1.238   4.764   6.677
   95PC      HR 4045   1.235   4.874   6.694
   95PC      HS 4046   1.175   4.742   6.588
   95PC      C2 4047   1.185   4.694   6.805
   95PC      HX 4048   1.084   4.734   6.830
   95PC      C3 4049   1.281   4.725   6.923
   95PC      HA 4050   1.380   4.680   6.899
   95PC      HB 4051   1.293   4.835   6.925
   95PC     O31 4052   1.233   4.682   7.050
   95PC     P31 4053   1.237   4.531   7.101
   95PC     O32 4054   1.346   4.460   7.011
   95PC     C31 4055   1.483   4.461   7.047
   95PC     H1A 4056   1.528   4.559   7.022
   95PC     H1B 4057   1.498   4.444   7.156
   95PC     C32 4058   1.554   4.351   6.967
   95PC     H2A 4059   1.508   4.355   6.868
   95PC     H2B 4060   1.658   4.377   6.957
   95PC     N31 4061   1.547   4.208   7.020
   95PC     C33 4062   1.407   4.156   7.031
   95PC     H3A 4063   1.349   4.218   7.099
   95PC     H3B 4064   1.357   4.158   6.935
   95PC     H3C 4065   1.403   4.055   7.069
   95PC     C34 4066   1.623   4.117   6.928
   95PC     H4A 4067   1.623   4.016   6.968
   95PC     H4B 4068   1.575   4.113   6.832
   95PC     H4C 4069   1.726   4.148   6.915
   95PC     C35 4070   1.610   4.200   7.155
   95PC     H5A 4071   1.716   4.222   7.151
   95PC     H5B 4072   1.602   4.100   7.196
   95PC     H5C 4073   1.561   4.267   7.223
   95PC     O33 4074   1.287   4.529   7.241
   95PC     O34 4075   1.103   4.470   7.081
   95PC     O21 4076   1.183   4.551   6.790
   95PC     C21 4077   1.105   4.502   6.699
   95PC     O22 4078   1.022   4.566   6.635
   96OL     C12 4079   1.125   4.351   6.688
   96OL     H2R 4080   1.064   4.306   6.768
   96OL     H2S 4081   1.232   4.327   6.707
   96OL     C13 4082   1.080   4.295   6.551
   96OL     H3R 4083   0.975   4.328   6.531
   96OL     H3S 4084   1.079   4.184   6.555
   96OL     C14 4085   1.168   4.339   6.433
   96OL     H4R 4086   1.188   4.448   6.438
   96OL     H4S 4087   1.111   4.320   6.339
   96OL     C15 4088   1.301   4.263   6.421
   96OL     H5R 4089   1.277   4.156   6.400
   96OL     H5S 4090   1.359   4.265   6.516
   96OL     C16 4091   1.388   4.317   6.307
   96OL     H6R 4092   1.405   4.426   6.316
   96OL     H6S 4093   1.331   4.300   6.213
   96OL     C17 4094   1.524   4.247   6.296
   96OL     H7R 4095   1.500   4.140   6.309
   96OL     H7S 4096   1.592   4.275   6.379
   96OL     C18 4097   1.594   4.267   6.161
   96OL     H8R 4098   1.695   4.220   6.165
   96OL     H8S 4099   1.608   4.376   6.145
   96OL     C19 4100   1.511   4.202   6.053
   96OL     H9R 4101   1.442   4.127   6.094
   96OL    C110 4102   1.487   4.241   5.928
   96OL    H10R 4103   1.419   4.181   5.865
   96OL    C111 4104   1.543   4.364   5.866
   96OL    H11R 4105   1.584   4.432   5.944
   96OL    H11S 4106   1.457   4.418   5.819
   96OL    C112 4107   1.652   4.350   5.760
   96OL    H12R 4108   1.620   4.279   5.680
   96OL    H12S 4109   1.746   4.311   5.806
   96OL    C113 4110   1.678   4.488   5.701
   96OL    H13R 4111   1.737   4.546   5.775
   96OL    H13S 4112   1.582   4.543   5.686
   96OL    C114 4113   1.751   4.488   5.567
   96OL    H14R 4114   1.850   4.439   5.578
   96OL    H14S 4115   1.766   4.596   5.547
   96OL    C115 4116   1.675   4.431   5.446
   96OL    H15R 4117   1.640   4.328   5.469
   96OL    H15S 4118   1.747   4.424   5.361
   96OL    C116 4119   1.557   4.517   5.398
   96OL    H16R 4120   1.593   4.618   5.370
   96OL    H16S 4121   1.482   4.528   5.479
   96OL    C117 4122   1.489   4.455   5.275
   96OL    H17R 4123   1.475   4.346   5.291
   96OL    H17S 4124   1.558   4.466   5.188
   96OL    C118 4125   1.353   4.515   5.240
   96OL    H18R 4126   1.361   4.626   5.228
   96OL    H18S 4127   1.279   4.494   5.320
   96OL    H18T 4128   1.315   4.471   5.145
   97PA    C116 4129   4.013   4.912   5.228
   97PA    H16R 4130   4.065   4.834   5.291
   97PA    H16S 4131   4.080   4.960   5.157
   97PA    H16T 4132   3.936   4.872   5.160
   97PA    C115 4133   4.017   5.045   5.283
   97PA    H15R 4134   3.987   5.120   5.206
   97PA    H15S 4135   3.934   5.029   5.348
   97PA    C114 4136   4.150   5.084   5.354
   97PA    H14R 4137   4.194   4.997   5.408
   97PA    H14S 4138   4.225   5.125   5.283
   97PA    C113 4139   4.108   5.182   5.459
   97PA    H13R 4140   4.065   5.276   5.423
   97PA    H13S 4141   4.030   5.111   5.493
   97PA    C112 4142   4.157   5.195   5.600
   97PA    H12R 4143   4.103   5.281   5.647
   97PA    H12S 4144   4.132   5.105   5.660
   97PA    C111 4145   4.302   5.219   5.591
   97PA    H11R 4146   4.350   5.133   5.540
   97PA    H11S 4147   4.317   5.310   5.527
   97PA    C110 4148   4.352   5.238   5.730
   97PA    H10R 4149   4.279   5.301   5.787
   97PA    H10S 4150   4.361   5.141   5.784
   97PA     C19 4151   4.482   5.313   5.723
   97PA     H9R 4152   4.564   5.255   5.675
   97PA     H9S 4153   4.466   5.406   5.664
   97PA     C18 4154   4.523   5.349   5.861
   97PA     H8R 4155   4.436   5.387   5.922
   97PA     H8S 4156   4.566   5.262   5.915
   97PA     C17 4157   4.626   5.456   5.848
   97PA     H7R 4158   4.691   5.447   5.759
   97PA     H7S 4159   4.564   5.547   5.828
   97PA     C16 4160   4.704   5.459   5.978
   97PA     H6R 4161   4.756   5.555   5.985
   97PA     H6S 4162   4.625   5.439   6.053
   97PA     C15 4163   4.804   5.359   6.031
   97PA     H5R 4164   4.751   5.266   6.055
   97PA     H5S 4165   4.879   5.349   5.951
   97PA     C14 4166   4.887   5.402   6.155
   97PA     H4R 4167   4.951   5.317   6.184
   97PA     H4S 4168   4.946   5.489   6.123
   97PA     C13 4169   4.827   5.433   6.291
   97PA     H3R 4170   4.906   5.449   6.368
   97PA     H3S 4171   4.794   5.538   6.280
   97PA     C12 4172   4.720   5.325   6.329
   97PA     H2R 4173   4.637   5.364   6.388
   97PA     H2S 4174   4.655   5.305   6.247
   98PC     C11 4175   4.740   5.227   6.438
   98PC     O12 4176   4.826   5.237   6.522
   98PC     O11 4177   4.626   5.161   6.450
   98PC      C1 4178   4.615   5.092   6.573
   98PC      HR 4179   4.550   5.005   6.552
   98PC      HS 4180   4.711   5.053   6.608
   98PC      C2 4181   4.551   5.167   6.692
   98PC      HX 4182   4.595   5.267   6.715
   98PC      C3 4183   4.581   5.083   6.817
   98PC      HA 4184   4.559   4.979   6.784
   98PC      HB 4185   4.689   5.089   6.843
   98PC     O31 4186   4.495   5.116   6.925
   98PC     P31 4187   4.530   5.221   7.037
   98PC     O32 4188   4.437   5.166   7.153
   98PC     C31 4189   4.429   5.027   7.188
   98PC     H1A 4190   4.494   4.961   7.125
   98PC     H1B 4191   4.465   5.014   7.293
   98PC     C32 4192   4.283   4.974   7.186
   98PC     H2A 4193   4.288   4.870   7.215
   98PC     H2B 4194   4.229   5.029   7.261
   98PC     N31 4195   4.202   4.985   7.059
   98PC     C33 4196   4.278   4.930   6.943
   98PC     H3A 4197   4.301   4.825   6.955
   98PC     H3B 4198   4.220   4.939   6.852
   98PC     H3C 4199   4.372   4.982   6.928
   98PC     C34 4200   4.072   4.913   7.075
   98PC     H4A 4201   4.090   4.810   7.100
   98PC     H4B 4202   4.011   4.961   7.152
   98PC     H4C 4203   4.017   4.917   6.981
   98PC     C35 4204   4.166   5.126   7.028
   98PC     H5A 4205   4.096   5.169   7.099
   98PC     H5B 4206   4.118   5.131   6.930
   98PC     H5C 4207   4.255   5.188   7.024
   98PC     O33 4208   4.671   5.207   7.076
   98PC     O34 4209   4.484   5.356   7.000
   98PC     O21 4210   4.412   5.174   6.671
   98PC     C21 4211   4.371   5.289   6.631
   98PC     O22 4212   4.433   5.391   6.611
   99OL     C12 4213   4.227   5.280   6.614
   99OL     H2R 4214   4.195   5.350   6.694
   99OL     H2S 4215   4.184   5.180   6.636
   99OL     C13 4216   4.192   5.333   6.474
   99OL     H3R 4217   4.265   5.398   6.422
   99OL     H3S 4218   4.123   5.403   6.512
   99OL     C14 4219   4.119   5.240   6.379
   99OL     H4R 4220   4.081   5.286   6.285
   99OL     H4S 4221   4.033   5.184   6.422
   99OL     C15 4222   4.209   5.134   6.337
   99OL     H5R 4223   4.140   5.078   6.274
   99OL     H5S 4224   4.238   5.076   6.428
   99OL     C16 4225   4.323   5.179   6.251
   99OL     H6R 4226   4.372   5.271   6.287
   99OL     H6S 4227   4.281   5.202   6.150
   99OL     C17 4228   4.418   5.060   6.250
   99OL     H7R 4229   4.359   4.972   6.220
   99OL     H7S 4230   4.450   5.037   6.353
   99OL     C18 4231   4.534   5.076   6.155
   99OL     H8R 4232   4.606   5.143   6.198
   99OL     H8S 4233   4.499   5.122   6.060
   99OL     C19 4234   4.612   4.951   6.139
   99OL     H9R 4235   4.658   4.912   6.231
   99OL    C110 4236   4.619   4.879   6.028
   99OL    H10R 4237   4.676   4.787   6.036
   99OL    C111 4238   4.552   4.905   5.897
   99OL    H11R 4239   4.480   4.990   5.901
   99OL    H11S 4240   4.495   4.813   5.878
   99OL    C112 4241   4.631   4.924   5.770
   99OL    H12R 4242   4.707   4.845   5.757
   99OL    H12S 4243   4.684   5.022   5.775
   99OL    C113 4244   4.549   4.914   5.642
   99OL    H13R 4245   4.454   4.971   5.644
   99OL    H13S 4246   4.527   4.807   5.619
   99OL    C114 4247   4.637   4.965   5.533
   99OL    H14R 4248   4.713   4.884   5.520
   99OL    H14S 4249   4.688   5.058   5.565
   99OL    C115 4250   4.572   4.992   5.401
   99OL    H15R 4251   4.488   5.063   5.393
   99OL    H15S 4252   4.540   4.899   5.357
   99OL    C116 4253   4.683   5.035   5.314
   99OL    H16R 4254   4.737   4.937   5.311
   99OL    H16S 4255   4.752   5.106   5.365
   99OL    C117 4256   4.639   5.084   5.177
   99OL    H17R 4257   4.547   5.144   5.185
   99OL    H17S 4258   4.603   5.001   5.115
   99OL    C118 4259   4.754   5.156   5.108
   99OL    H18R 4260   4.823   5.208   5.176
   99OL    H18S 4261   4.728   5.204   5.014
   99OL    H18T 4262   4.832   5.098   5.065
  100PA    C116 4263   4.134   5.475   5.270
  100PA    H16R 4264   4.176   5.378   5.301
  100PA    H16S 4265   4.203   5.553   5.308
  100PA    H16T 4266   4.135   5.473   5.159
  100PA    C115 4267   3.990   5.498   5.322
  100PA    H15R 4268   3.988   5.486   5.432
  100PA    H15S 4269   3.959   5.603   5.299
  100PA    C114 4270   3.889   5.405   5.254
  100PA    H14R 4271   3.868   5.451   5.155
  100PA    H14S 4272   3.943   5.311   5.233
  100PA    C113 4273   3.753   5.376   5.324
  100PA    H13R 4274   3.688   5.464   5.315
  100PA    H13S 4275   3.705   5.290   5.271
  100PA    C112 4276   3.757   5.338   5.473
  100PA    H12R 4277   3.818   5.414   5.529
  100PA    H12S 4278   3.659   5.328   5.522
  100PA    C111 4279   3.827   5.207   5.490
  100PA    H11R 4280   3.881   5.203   5.395
  100PA    H11S 4281   3.894   5.215   5.578
  100PA    C110 4282   3.756   5.075   5.500
  100PA    H10R 4283   3.668   5.075   5.433
  100PA    H10S 4284   3.815   4.984   5.475
  100PA     C19 4285   3.737   5.050   5.645
  100PA     H9R 4286   3.832   5.020   5.695
  100PA     H9S 4287   3.698   5.144   5.691
  100PA     C18 4288   3.637   4.941   5.651
  100PA     H8R 4289   3.548   4.981   5.597
  100PA     H8S 4290   3.671   4.851   5.594
  100PA     C17 4291   3.612   4.904   5.795
  100PA     H7R 4292   3.541   4.820   5.783
  100PA     H7S 4293   3.701   4.855   5.839
  100PA     C16 4294   3.570   5.022   5.888
  100PA     H6R 4295   3.653   5.095   5.893
  100PA     H6S 4296   3.482   5.077   5.846
  100PA     C15 4297   3.544   4.978   6.034
  100PA     H5R 4298   3.444   4.936   6.050
  100PA     H5S 4299   3.614   4.896   6.059
  100PA     C14 4300   3.543   5.089   6.138
  100PA     H4R 4301   3.649   5.123   6.145
  100PA     H4S 4302   3.478   5.173   6.104
  100PA     C13 4303   3.496   5.041   6.276
  100PA     H3R 4304   3.388   5.016   6.278
  100PA     H3S 4305   3.552   4.947   6.301
  100PA     C12 4306   3.520   5.147   6.385
  100PA     H2R 4307   3.615   5.201   6.366
  100PA     H2S 4308   3.437   5.221   6.383
  101PC     C11 4309   3.525   5.082   6.521
  101PC     O12 4310   3.430   5.027   6.573
  101PC     O11 4311   3.641   5.093   6.575
  101PC      C1 4312   3.639   5.046   6.712
  101PC      HR 4313   3.561   5.098   6.773
  101PC      HS 4314   3.623   4.936   6.721
  101PC      C2 4315   3.773   5.085   6.773
  101PC      HX 4316   3.848   5.010   6.739
  101PC      C3 4317   3.765   5.084   6.927
  101PC      HA 4318   3.689   5.010   6.960
  101PC      HB 4319   3.863   5.054   6.971
  101PC     O31 4320   3.728   5.215   6.968
  101PC     P31 4321   3.754   5.267   7.113
  101PC     O32 4322   3.618   5.343   7.134
  101PC     C31 4323   3.500   5.264   7.123
  101PC     H1A 4324   3.496   5.199   7.031
  101PC     H1B 4325   3.483   5.203   7.214
  101PC     C32 4326   3.385   5.358   7.110
  101PC     H2A 4327   3.292   5.303   7.116
  101PC     H2B 4328   3.387   5.426   7.194
  101PC     N31 4329   3.392   5.436   6.982
  101PC     C33 4330   3.478   5.558   6.992
  101PC     H3A 4331   3.580   5.526   7.008
  101PC     H3B 4332   3.465   5.621   6.906
  101PC     H3C 4333   3.447   5.616   7.079
  101PC     C34 4334   3.382   5.365   6.853
  101PC     H4A 4335   3.364   5.436   6.773
  101PC     H4B 4336   3.469   5.305   6.837
  101PC     H4C 4337   3.293   5.301   6.857
  101PC     C35 4338   3.271   5.490   6.979
  101PC     H5A 4339   3.190   5.422   7.002
  101PC     H5B 4340   3.250   5.538   6.883
  101PC     H5C 4341   3.268   5.569   7.054
  101PC     O33 4342   3.758   5.153   7.207
  101PC     O34 4343   3.866   5.364   7.112
  101PC     O21 4344   3.801   5.215   6.718
  101PC     C21 4345   3.917   5.261   6.740
  101PC     O22 4346   4.009   5.202   6.795
  102OL     C12 4347   3.923   5.403   6.678
  102OL     H2R 4348   4.026   5.439   6.691
  102OL     H2S 4349   3.858   5.470   6.735
  102OL     C13 4350   3.887   5.413   6.527
  102OL     H3R 4351   3.782   5.395   6.499
  102OL     H3S 4352   3.931   5.326   6.481
  102OL     C14 4353   3.948   5.540   6.463
  102OL     H4R 4354   4.052   5.566   6.492
  102OL     H4S 4355   3.894   5.629   6.499
  102OL     C15 4356   3.957   5.533   6.311
  102OL     H5R 4357   4.026   5.461   6.265
  102OL     H5S 4358   4.009   5.627   6.293
  102OL     C16 4359   3.820   5.520   6.243
  102OL     H6R 4360   3.757   5.599   6.291
  102OL     H6S 4361   3.776   5.421   6.261
  102OL     C17 4362   3.831   5.547   6.093
  102OL     H7R 4363   3.901   5.476   6.044
  102OL     H7S 4364   3.877   5.645   6.094
  102OL     C18 4365   3.703   5.567   6.011
  102OL     H8R 4366   3.657   5.467   5.997
  102OL     H8S 4367   3.734   5.601   5.909
  102OL     C19 4368   3.609   5.672   6.066
  102OL     H9R 4369   3.633   5.776   6.040
  102OL    C110 4370   3.494   5.649   6.131
  102OL    H10R 4371   3.434   5.732   6.170
  102OL    C111 4372   3.440   5.512   6.158
  102OL    H11R 4373   3.388   5.511   6.256
  102OL    H11S 4374   3.519   5.434   6.162
  102OL    C112 4375   3.344   5.473   6.046
  102OL    H12R 4376   3.253   5.536   6.048
  102OL    H12S 4377   3.322   5.369   6.078
  102OL    C113 4378   3.400   5.463   5.902
  102OL    H13R 4379   3.491   5.400   5.911
  102OL    H13S 4380   3.425   5.563   5.864
  102OL    C114 4381   3.312   5.390   5.799
  102OL    H14R 4382   3.228   5.456   5.768
  102OL    H14S 4383   3.273   5.299   5.850
  102OL    C115 4384   3.383   5.338   5.674
  102OL    H15R 4385   3.465   5.270   5.705
  102OL    H15S 4386   3.428   5.422   5.616
  102OL    C116 4387   3.291   5.264   5.577
  102OL    H16R 4388   3.198   5.320   5.560
  102OL    H16S 4389   3.256   5.171   5.624
  102OL    C117 4390   3.363   5.240   5.442
  102OL    H17R 4391   3.449   5.171   5.464
  102OL    H17S 4392   3.401   5.335   5.401
  102OL    C118 4393   3.277   5.179   5.334
  102OL    H18R 4394   3.326   5.127   5.249
  102OL    H18S 4395   3.179   5.226   5.314
  102OL    H18T 4396   3.239   5.096   5.387
  103PA    C116 4397   1.977   4.881   5.389
  103PA    H16R 4398   2.064   4.822   5.391
  103PA    H16S 4399   2.013   4.981   5.418
  103PA    H16T 4400   1.946   4.873   5.283
  103PA    C115 4401   1.882   4.812   5.486
  103PA    H15R 4402   1.781   4.855   5.473
  103PA    H15S 4403   1.880   4.707   5.448
  103PA    C114 4404   1.922   4.809   5.635
  103PA    H14R 4405   1.909   4.705   5.673
  103PA    H14S 4406   2.030   4.834   5.650
  103PA    C113 4407   1.834   4.899   5.722
  103PA    H13R 4408   1.835   5.003   5.682
  103PA    H13S 4409   1.730   4.861   5.717
  103PA    C112 4410   1.876   4.904   5.869
  103PA    H12R 4411   1.877   4.801   5.911
  103PA    H12S 4412   1.980   4.942   5.875
  103PA    C111 4413   1.786   4.997   5.951
  103PA    H11R 4414   1.774   5.093   5.896
  103PA    H11S 4415   1.684   4.954   5.954
  103PA    C110 4416   1.839   5.028   6.091
  103PA    H10R 4417   1.949   5.040   6.089
  103PA    H10S 4418   1.794   5.122   6.129
  103PA     C19 4419   1.803   4.921   6.192
  103PA     H9R 4420   1.703   4.954   6.228
  103PA     H9S 4421   1.793   4.822   6.142
  103PA     C18 4422   1.901   4.902   6.308
  103PA     H8R 4423   2.002   4.886   6.268
  103PA     H8S 4424   1.903   4.993   6.372
  103PA     C17 4425   1.867   4.779   6.390
  103PA     H7R 4426   1.787   4.815   6.455
  103PA     H7S 4427   1.827   4.700   6.322
  103PA     C16 4428   1.973   4.715   6.478
  103PA     H6R 4429   2.058   4.684   6.414
  103PA     H6S 4430   2.011   4.787   6.553
  103PA     C15 4431   1.919   4.589   6.547
  103PA     H5R 4432   1.845   4.614   6.626
  103PA     H5S 4433   1.867   4.527   6.471
  103PA     C14 4434   2.032   4.503   6.604
  103PA     H4R 4435   2.083   4.456   6.516
  103PA     H4S 4436   2.109   4.568   6.652
  103PA     C13 4437   1.980   4.392   6.696
  103PA     H3R 4438   1.897   4.341   6.642
  103PA     H3S 4439   2.061   4.316   6.708
  103PA     C12 4440   1.928   4.439   6.835
  103PA     H2R 4441   1.851   4.518   6.825
  103PA     H2S 4442   1.885   4.352   6.889
  104PC     C11 4443   2.042   4.495   6.919
  104PC     O12 4444   2.155   4.492   6.877
  104PC     O11 4445   2.000   4.538   7.038
  104PC      C1 4446   2.088   4.548   7.154
  104PC      HR 4447   2.025   4.549   7.245
  104PC      HS 4448   2.140   4.455   7.177
  104PC      C2 4449   2.183   4.674   7.167
  104PC      HX 4450   2.266   4.650   7.238
  104PC      C3 4451   2.099   4.783   7.238
  104PC      HA 4452   2.010   4.801   7.173
  104PC      HB 4453   2.062   4.740   7.334
  104PC     O31 4454   2.173   4.901   7.269
  104PC     P31 4455   2.089   5.037   7.278
  104PC     O32 4456   2.015   5.035   7.136
  104PC     C31 4457   2.002   5.155   7.060
  104PC     H1A 4458   1.944   5.231   7.116
  104PC     H1B 4459   2.100   5.202   7.039
  104PC     C32 4460   1.922   5.132   6.928
  104PC     H2A 4461   1.819   5.112   6.957
  104PC     H2B 4462   1.925   5.226   6.873
  104PC     N31 4463   1.968   5.020   6.836
  104PC     C33 4464   1.932   4.888   6.898
  104PC     H3A 4465   1.974   4.805   6.842
  104PC     H3B 4466   1.974   4.884   6.999
  104PC     H3C 4467   1.825   4.877   6.907
  104PC     C34 4468   1.904   5.027   6.702
  104PC     H4A 4469   1.904   5.128   6.662
  104PC     H4B 4470   1.957   4.964   6.631
  104PC     H4C 4471   1.801   4.993   6.706
  104PC     C35 4472   2.118   5.028   6.827
  104PC     H5A 4473   2.152   5.129   6.810
  104PC     H5B 4474   2.160   4.963   6.752
  104PC     H5C 4475   2.159   4.999   6.925
  104PC     O33 4476   1.984   5.026   7.383
  104PC     O34 4477   2.177   5.155   7.285
  104PC     O21 4478   2.231   4.720   7.038
  104PC     C21 4479   2.362   4.711   7.014
  104PC     O22 4480   2.443   4.655   7.086
  105OL     C12 4481   2.401   4.783   6.886
  105OL     H2R 4482   2.488   4.848   6.909
  105OL     H2S 4483   2.317   4.846   6.851
  105OL     C13 4484   2.441   4.681   6.778
  105OL     H3R 4485   2.361   4.604   6.768
  105OL     H3S 4486   2.535   4.631   6.810
  105OL     C14 4487   2.468   4.745   6.642
  105OL     H4R 4488   2.506   4.661   6.577
  105OL     H4S 4489   2.552   4.818   6.649
  105OL     C15 4490   2.350   4.811   6.569
  105OL     H5R 4491   2.344   4.919   6.595
  105OL     H5S 4492   2.254   4.763   6.595
  105OL     C16 4493   2.376   4.795   6.419
  105OL     H6R 4494   2.371   4.687   6.394
  105OL     H6S 4495   2.480   4.829   6.402
  105OL     C17 4496   2.282   4.874   6.327
  105OL     H7R 4497   2.309   4.982   6.334
  105OL     H7S 4498   2.179   4.861   6.365
  105OL     C18 4499   2.291   4.832   6.179
  105OL     H8R 4500   2.283   4.721   6.171
  105OL     H8S 4501   2.391   4.863   6.146
  105OL     C19 4502   2.193   4.904   6.091
  105OL     H9R 4503   2.089   4.870   6.101
  105OL    C110 4504   2.220   4.993   5.994
  105OL    H10R 4505   2.136   5.044   5.946
  105OL    C111 4506   2.352   5.046   5.947
  105OL    H11R 4507   2.437   5.018   6.014
  105OL    H11S 4508   2.351   5.157   5.940
  105OL    C112 4509   2.377   4.994   5.806
  105OL    H12R 4510   2.483   5.024   5.781
  105OL    H12S 4511   2.311   5.030   5.725
  105OL    C113 4512   2.373   4.844   5.799
  105OL    H13R 4513   2.288   4.781   5.831
  105OL    H13S 4514   2.448   4.831   5.875
  105OL    C114 4515   2.431   4.806   5.668
  105OL    H14R 4516   2.458   4.702   5.670
  105OL    H14S 4517   2.518   4.871   5.647
  105OL    C115 4518   2.344   4.765   5.557
  105OL    H15R 4519   2.315   4.854   5.499
  105OL    H15S 4520   2.263   4.702   5.601
  105OL    C116 4521   2.424   4.681   5.461
  105OL    H16R 4522   2.444   4.578   5.499
  105OL    H16S 4523   2.512   4.743   5.440
  105OL    C117 4524   2.370   4.653   5.330
  105OL    H17R 4525   2.436   4.571   5.296
  105OL    H17S 4526   2.393   4.738   5.265
  105OL    C118 4527   2.224   4.629   5.362
  105OL    H18R 4528   2.197   4.723   5.397
  105OL    H18S 4529   2.197   4.565   5.447
  105OL    H18T 4530   2.156   4.598   5.282
  106PA    C116 4531  -0.365   4.138   5.393
  106PA    H16R 4532  -0.334   4.243   5.378
  106PA    H16S 4533  -0.438   4.134   5.476
  106PA    H16T 4534  -0.414   4.102   5.300
  106PA    C115 4535  -0.244   4.051   5.427
  106PA    H15R 4536  -0.276   3.946   5.446
  106PA    H15S 4537  -0.174   4.049   5.340
  106PA    C114 4538  -0.167   4.101   5.550
  106PA    H14R 4539  -0.225   4.084   5.642
  106PA    H14S 4540  -0.077   4.038   5.557
  106PA    C113 4541  -0.120   4.247   5.546
  106PA    H13R 4542  -0.086   4.275   5.444
  106PA    H13S 4543  -0.204   4.313   5.574
  106PA    C112 4544  -0.003   4.267   5.644
  106PA    H12R 4545   0.011   4.375   5.665
  106PA    H12S 4546  -0.028   4.215   5.739
  106PA    C111 4547   0.129   4.210   5.589
  106PA    H11R 4548   0.118   4.103   5.563
  106PA    H11S 4549   0.153   4.263   5.495
  106PA    C110 4550   0.247   4.227   5.686
  106PA    H10R 4551   0.339   4.198   5.631
  106PA    H10S 4552   0.252   4.334   5.711
  106PA     C19 4553   0.244   4.151   5.820
  106PA     H9R 4554   0.341   4.167   5.871
  106PA     H9S 4555   0.165   4.194   5.885
  106PA     C18 4556   0.218   4.001   5.806
  106PA     H8R 4557   0.118   3.989   5.758
  106PA     H8S 4558   0.295   3.952   5.743
  106PA     C17 4559   0.209   3.932   5.941
  106PA     H7R 4560   0.141   3.990   6.007
  106PA     H7S 4561   0.166   3.831   5.927
  106PA     C16 4562   0.342   3.915   6.011
  106PA     H6R 4563   0.416   3.860   5.948
  106PA     H6S 4564   0.388   4.013   6.039
  106PA     C15 4565   0.314   3.832   6.134
  106PA     H5R 4566   0.237   3.883   6.197
  106PA     H5S 4567   0.282   3.729   6.109
  106PA     C14 4568   0.436   3.818   6.217
  106PA     H4R 4569   0.523   3.791   6.153
  106PA     H4S 4570   0.457   3.922   6.251
  106PA     C13 4571   0.409   3.722   6.335
  106PA     H3R 4572   0.394   3.621   6.311
  106PA     H3S 4573   0.513   3.705   6.374
  106PA     C12 4574   0.288   3.765   6.440
  106PA     H2R 4575   0.207   3.791   6.372
  106PA     H2S 4576   0.259   3.672   6.491
  107PC     C11 4577   0.281   3.890   6.547
  107PC     O12 4578   0.281   4.005   6.508
  107PC     O11 4579   0.291   3.858   6.681
  107PC      C1 4580   0.353   3.946   6.784
  107PC      HR 4581   0.330   3.908   6.887
  107PC      HS 4582   0.464   3.945   6.785
  107PC      C2 4583   0.311   4.096   6.783
  107PC      HX 4584   0.380   4.149   6.712
  107PC      C3 4585   0.318   4.167   6.921
  107PC      HA 4586   0.424   4.170   6.955
  107PC      HB 4587   0.286   4.273   6.908
  107PC     O31 4588   0.241   4.097   7.019
  107PC     P31 4589   0.091   4.135   7.058
  107PC     O32 4590  -0.003   4.040   6.974
  107PC     C31 4591   0.016   3.899   6.991
  107PC     H1A 4592   0.080   3.861   6.908
  107PC     H1B 4593   0.068   3.872   7.087
  107PC     C32 4594  -0.119   3.825   6.991
  107PC     H2A 4595  -0.157   3.825   6.889
  107PC     H2B 4596  -0.095   3.722   7.016
  107PC     N31 4597  -0.229   3.872   7.085
  107PC     C33 4598  -0.296   3.993   7.025
  107PC     H3A 4599  -0.376   4.029   7.087
  107PC     H3B 4600  -0.222   4.073   7.016
  107PC     H3C 4601  -0.333   3.973   6.925
  107PC     C34 4602  -0.327   3.761   7.100
  107PC     H4A 4603  -0.364   3.728   7.003
  107PC     H4B 4604  -0.281   3.675   7.148
  107PC     H4C 4605  -0.411   3.794   7.160
  107PC     C35 4606  -0.173   3.913   7.217
  107PC     H5A 4607  -0.101   3.995   7.205
  107PC     H5B 4608  -0.117   3.833   7.265
  107PC     H5C 4609  -0.250   3.948   7.284
  107PC     O33 4610   0.065   4.110   7.201
  107PC     O34 4611   0.062   4.274   7.020
  107PC     O21 4612   0.178   4.093   6.735
  107PC     C21 4613   0.125   4.199   6.685
  107PC     O22 4614   0.167   4.313   6.688
  108OL     C12 4615  -0.006   4.154   6.621
  108OL     H2R 4616  -0.082   4.153   6.702
  108OL     H2S 4617   0.008   4.051   6.582
  108OL     C13 4618  -0.047   4.249   6.508
  108OL     H3R 4619   0.035   4.251   6.432
  108OL     H3S 4620  -0.056   4.352   6.549
  108OL     C14 4621  -0.178   4.209   6.441
  108OL     H4R 4622  -0.208   4.292   6.373
  108OL     H4S 4623  -0.258   4.195   6.516
  108OL     C15 4624  -0.166   4.084   6.353
  108OL     H5R 4625  -0.144   3.993   6.413
  108OL     H5S 4626  -0.078   4.101   6.288
  108OL     C16 4627  -0.289   4.059   6.264
  108OL     H6R 4628  -0.295   4.138   6.186
  108OL     H6S 4629  -0.384   4.061   6.323
  108OL     C17 4630  -0.272   3.926   6.193
  108OL     H7R 4631  -0.365   3.890   6.143
  108OL     H7S 4632  -0.248   3.850   6.272
  108OL     C18 4633  -0.162   3.944   6.088
  108OL     H8R 4634  -0.089   4.023   6.108
  108OL     H8S 4635  -0.209   3.968   5.990
  108OL     C19 4636  -0.088   3.817   6.086
  108OL     H9R 4637  -0.014   3.795   6.164
  108OL    C110 4638  -0.111   3.728   5.995
  108OL    H10R 4639  -0.089   3.632   6.042
  108OL    C111 4640  -0.207   3.730   5.878
  108OL    H11R 4641  -0.307   3.769   5.905
  108OL    H11S 4642  -0.228   3.626   5.846
  108OL    C112 4643  -0.157   3.796   5.751
  108OL    H12R 4644  -0.125   3.900   5.774
  108OL    H12S 4645  -0.240   3.800   5.676
  108OL    C113 4646  -0.042   3.718   5.689
  108OL    H13R 4647  -0.067   3.617   5.655
  108OL    H13S 4648   0.041   3.710   5.763
  108OL    C114 4649   0.007   3.785   5.566
  108OL    H14R 4650   0.034   3.888   5.598
  108OL    H14S 4651  -0.066   3.791   5.483
  108OL    C115 4652   0.132   3.723   5.519
  108OL    H15R 4653   0.118   3.641   5.445
  108OL    H15S 4654   0.189   3.674   5.602
  108OL    C116 4655   0.209   3.845   5.470
  108OL    H16R 4656   0.300   3.796   5.484
  108OL    H16S 4657   0.228   3.929   5.538
  108OL    C117 4658   0.171   3.895   5.332
  108OL    H17R 4659   0.254   3.943   5.276
  108OL    H17S 4660   0.091   3.971   5.335
  108OL    C118 4661   0.125   3.785   5.246
  108OL    H18R 4662   0.027   3.738   5.269
  108OL    H18S 4663   0.202   3.703   5.242
  108OL    H18T 4664   0.112   3.835   5.148
  109PA    C116 4665   1.044   1.715   5.353
  109PA    H16R 4666   1.058   1.674   5.251
  109PA    H16S 4667   1.129   1.781   5.375
  109PA    H16T 4668   0.952   1.777   5.355
  109PA    C115 4669   1.040   1.603   5.457
  109PA    H15R 4670   1.134   1.543   5.448
  109PA    H15S 4671   1.037   1.647   5.559
  109PA    C114 4672   0.922   1.508   5.441
  109PA    H14R 4673   0.924   1.464   5.339
  109PA    H14S 4674   0.935   1.424   5.513
  109PA    C113 4675   0.786   1.575   5.465
  109PA    H13R 4676   0.782   1.619   5.567
  109PA    H13S 4677   0.770   1.655   5.390
  109PA    C112 4678   0.677   1.469   5.452
  109PA    H12R 4679   0.704   1.420   5.357
  109PA    H12S 4680   0.688   1.393   5.532
  109PA    C111 4681   0.533   1.520   5.441
  109PA    H11R 4682   0.527   1.592   5.357
  109PA    H11S 4683   0.468   1.433   5.418
  109PA    C110 4684   0.478   1.591   5.565
  109PA    H10R 4685   0.516   1.695   5.567
  109PA    H10S 4686   0.367   1.596   5.554
  109PA     C19 4687   0.513   1.519   5.696
  109PA     H9R 4688   0.468   1.417   5.693
  109PA     H9S 4689   0.622   1.509   5.707
  109PA     C18 4690   0.459   1.591   5.819
  109PA     H8R 4691   0.350   1.600   5.804
  109PA     H8S 4692   0.477   1.532   5.911
  109PA     C17 4693   0.501   1.736   5.839
  109PA     H7R 4694   0.455   1.793   5.756
  109PA     H7S 4695   0.464   1.772   5.938
  109PA     C16 4696   0.646   1.769   5.825
  109PA     H6R 4697   0.685   1.738   5.725
  109PA     H6S 4698   0.661   1.879   5.835
  109PA     C15 4699   0.721   1.699   5.933
  109PA     H5R 4700   0.700   1.747   6.031
  109PA     H5S 4701   0.696   1.591   5.942
  109PA     C14 4702   0.864   1.707   5.896
  109PA     H4R 4703   0.894   1.651   5.805
  109PA     H4S 4704   0.890   1.816   5.877
  109PA     C13 4705   0.938   1.659   6.016
  109PA     H3R 4706   1.040   1.649   5.974
  109PA     H3S 4707   0.926   1.756   6.068
  109PA     C12 4708   0.899   1.535   6.117
  109PA     H2R 4709   0.794   1.547   6.148
  109PA     H2S 4710   0.924   1.452   6.051
  110PC     C11 4711   0.975   1.480   6.255
  110PC     O12 4712   1.083   1.424   6.255
  110PC     O11 4713   0.920   1.522   6.368
  110PC      C1 4714   1.001   1.505   6.489
  110PC      HR 4715   1.078   1.424   6.487
  110PC      HS 4716   1.059   1.597   6.517
  110PC      C2 4717   0.904   1.474   6.602
  110PC      HX 4718   0.829   1.557   6.609
  110PC      C3 4719   0.976   1.468   6.737
  110PC      HA 4720   1.050   1.384   6.740
  110PC      HB 4721   1.034   1.560   6.741
  110PC     O31 4722   0.884   1.471   6.846
  110PC     P31 4723   0.860   1.335   6.924
  110PC     O32 4724   0.763   1.380   7.039
  110PC     C31 4725   0.755   1.512   7.092
  110PC     H1A 4726   0.854   1.545   7.129
  110PC     H1B 4727   0.721   1.584   7.014
  110PC     C32 4728   0.655   1.512   7.210
  110PC     H2A 4729   0.701   1.454   7.290
  110PC     H2B 4730   0.649   1.613   7.250
  110PC     N31 4731   0.514   1.457   7.187
  110PC     C33 4732   0.520   1.312   7.149
  110PC     H3A 4733   0.423   1.269   7.134
  110PC     H3B 4734   0.578   1.304   7.056
  110PC     H3C 4735   0.578   1.255   7.221
  110PC     C34 4736   0.432   1.474   7.310
  110PC     H4A 4737   0.472   1.416   7.392
  110PC     H4B 4738   0.434   1.577   7.344
  110PC     H4C 4739   0.329   1.450   7.292
  110PC     C35 4740   0.450   1.529   7.075
  110PC     H5A 4741   0.411   1.627   7.100
  110PC     H5B 4742   0.369   1.472   7.032
  110PC     H5C 4743   0.522   1.544   6.994
  110PC     O33 4744   0.788   1.236   6.841
  110PC     O34 4745   0.991   1.294   6.979
  110PC     O21 4746   0.844   1.347   6.572
  110PC     C21 4747   0.744   1.355   6.486
  110PC     O22 4748   0.686   1.456   6.450
  111OL     C12 4749   0.713   1.217   6.429
  111OL     H2R 4750   0.634   1.231   6.353
  111OL     H2S 4751   0.672   1.160   6.515
  111OL     C13 4752   0.832   1.142   6.364
  111OL     H3R 4753   0.812   1.033   6.366
  111OL     H3S 4754   0.926   1.159   6.423
  111OL     C14 4755   0.853   1.180   6.217
  111OL     H4R 4756   0.954   1.146   6.185
  111OL     H4S 4757   0.849   1.289   6.207
  111OL     C15 4758   0.748   1.125   6.119
  111OL     H5R 4759   0.650   1.173   6.135
  111OL     H5S 4760   0.739   1.016   6.142
  111OL     C16 4761   0.788   1.139   5.971
  111OL     H6R 4762   0.731   1.066   5.910
  111OL     H6S 4763   0.895   1.107   5.969
  111OL     C17 4764   0.762   1.280   5.909
  111OL     H7R 4765   0.786   1.351   5.989
  111OL     H7S 4766   0.655   1.295   5.890
  111OL     C18 4767   0.834   1.319   5.778
  111OL     H8R 4768   0.821   1.424   5.748
  111OL     H8S 4769   0.808   1.252   5.693
  111OL     C19 4770   0.973   1.303   5.817
  111OL     H9R 4771   1.020   1.382   5.880
  111OL    C110 4772   1.038   1.196   5.778
  111OL    H10R 4773   1.122   1.173   5.837
  111OL    C111 4774   1.015   1.073   5.697
  111OL    H11R 4775   0.932   1.009   5.732
  111OL    H11S 4776   1.108   1.012   5.706
  111OL    C112 4777   1.023   1.111   5.550
  111OL    H12R 4778   1.102   1.186   5.543
  111OL    H12S 4779   0.931   1.164   5.522
  111OL    C113 4780   1.060   0.989   5.462
  111OL    H13R 4781   0.994   0.916   5.499
  111OL    H13S 4782   1.163   0.950   5.481
  111OL    C114 4783   1.038   0.997   5.310
  111OL    H14R 4784   1.048   0.910   5.244
  111OL    H14S 4785   1.141   0.994   5.271
  111OL    C115 4786   0.935   1.109   5.268
  111OL    H15R 4787   0.955   1.128   5.162
  111OL    H15S 4788   0.950   1.210   5.311
  111OL    C116 4789   0.787   1.096   5.315
  111OL    H16R 4790   0.778   1.115   5.423
  111OL    H16S 4791   0.756   0.993   5.306
  111OL    C117 4792   0.674   1.164   5.237
  111OL    H17R 4793   0.705   1.163   5.130
  111OL    H17S 4794   0.657   1.268   5.267
  111OL    C118 4795   0.535   1.102   5.239
  111OL    H18R 4796   0.539   0.994   5.211
  111OL    H18S 4797   0.476   1.155   5.161
  111OL    H18T 4798   0.489   1.113   5.338
  112PA    C116 4799   0.730   2.110   5.417
  112PA    H16R 4800   0.793   2.161   5.491
  112PA    H16S 4801   0.733   2.180   5.332
  112PA    H16T 4802   0.772   2.010   5.392
  112PA    C115 4803   0.589   2.105   5.466
  112PA    H15R 4804   0.517   2.102   5.382
  112PA    H15S 4805   0.573   2.011   5.523
  112PA    C114 4806   0.563   2.233   5.543
  112PA    H14R 4807   0.628   2.237   5.633
  112PA    H14S 4808   0.595   2.318   5.477
  112PA    C113 4809   0.416   2.254   5.573
  112PA    H13R 4810   0.401   2.364   5.583
  112PA    H13S 4811   0.353   2.217   5.489
  112PA    C112 4812   0.371   2.192   5.704
  112PA    H12R 4813   0.440   2.221   5.787
  112PA    H12S 4814   0.272   2.238   5.725
  112PA    C111 4815   0.363   2.039   5.698
  112PA    H11R 4816   0.294   2.004   5.618
  112PA    H11S 4817   0.464   1.996   5.682
  112PA    C110 4818   0.319   1.977   5.828
  112PA    H10R 4819   0.292   1.870   5.820
  112PA    H10S 4820   0.396   1.991   5.908
  112PA     C19 4821   0.196   2.037   5.875
  112PA     H9R 4822   0.201   2.148   5.882
  112PA     H9S 4823   0.111   2.014   5.808
  112PA     C18 4824   0.177   1.974   6.011
  112PA     H8R 4825   0.113   2.058   6.021
  112PA     H8S 4826   0.118   1.881   6.016
  112PA     C17 4827   0.254   2.013   6.136
  112PA     H7R 4828   0.196   1.976   6.222
  112PA     H7S 4829   0.347   1.953   6.139
  112PA     C16 4830   0.282   2.167   6.148
  112PA     H6R 4831   0.342   2.180   6.240
  112PA     H6S 4832   0.344   2.192   6.059
  112PA     C15 4833   0.171   2.277   6.151
  112PA     H5R 4834   0.111   2.278   6.057
  112PA     H5S 4835   0.100   2.260   6.236
  112PA     C14 4836   0.230   2.417   6.169
  112PA     H4R 4837   0.285   2.419   6.266
  112PA     H4S 4838   0.304   2.431   6.088
  112PA     C13 4839   0.129   2.533   6.164
  112PA     H3R 4840   0.180   2.628   6.192
  112PA     H3S 4841   0.096   2.544   6.058
  112PA     C12 4842   0.002   2.513   6.249
  112PA     H2R 4843  -0.067   2.600   6.239
  112PA     H2S 4844  -0.054   2.423   6.218
  113PC     C11 4845   0.036   2.508   6.397
  113PC     O12 4846   0.065   2.605   6.464
  113PC     O11 4847   0.024   2.384   6.437
  113PC      C1 4848   0.060   2.367   6.575
  113PC      HR 4849   0.051   2.457   6.641
  113PC      HS 4850  -0.014   2.294   6.615
  113PC      C2 4851   0.201   2.308   6.592
  113PC      HX 4852   0.198   2.220   6.524
  113PC      C3 4853   0.225   2.286   6.746
  113PC      HA 4854   0.122   2.264   6.775
  113PC      HB 4855   0.293   2.199   6.762
  113PC     O31 4856   0.262   2.399   6.826
  113PC     P31 4857   0.315   2.389   6.977
  113PC     O32 4858   0.378   2.244   6.988
  113PC     C31 4859   0.386   2.179   7.117
  113PC     H1A 4860   0.289   2.183   7.173
  113PC     H1B 4861   0.409   2.071   7.106
  113PC     C32 4862   0.504   2.237   7.193
  113PC     H2A 4863   0.484   2.344   7.189
  113PC     H2B 4864   0.497   2.203   7.296
  113PC     N31 4865   0.643   2.208   7.137
  113PC     C33 4866   0.655   2.253   6.993
  113PC     H3A 4867   0.556   2.258   6.946
  113PC     H3B 4868   0.692   2.355   6.986
  113PC     H3C 4869   0.714   2.187   6.932
  113PC     C34 4870   0.739   2.285   7.221
  113PC     H4A 4871   0.839   2.276   7.182
  113PC     H4B 4872   0.709   2.389   7.219
  113PC     H4C 4873   0.740   2.249   7.324
  113PC     C35 4874   0.667   2.062   7.150
  113PC     H5A 4875   0.673   2.041   7.257
  113PC     H5B 4876   0.756   2.030   7.098
  113PC     H5C 4877   0.583   2.006   7.110
  113PC     O33 4878   0.429   2.482   6.997
  113PC     O34 4879   0.207   2.396   7.075
  113PC     O21 4880   0.303   2.389   6.541
  113PC     C21 4881   0.414   2.315   6.550
  113PC     O22 4882   0.422   2.194   6.554
  114OL     C12 4883   0.528   2.410   6.552
  114OL     H2R 4884   0.598   2.382   6.632
  114OL     H2S 4885   0.488   2.512   6.569
  114OL     C13 4886   0.591   2.403   6.415
  114OL     H3R 4887   0.514   2.426   6.338
  114OL     H3S 4888   0.630   2.301   6.391
  114OL     C14 4889   0.702   2.506   6.407
  114OL     H4R 4890   0.768   2.501   6.497
  114OL     H4S 4891   0.655   2.607   6.405
  114OL     C15 4892   0.781   2.479   6.281
  114OL     H5R 4893   0.834   2.381   6.291
  114OL     H5S 4894   0.861   2.557   6.274
  114OL     C16 4895   0.688   2.471   6.158
  114OL     H6R 4896   0.625   2.380   6.157
  114OL     H6S 4897   0.756   2.458   6.071
  114OL     C17 4898   0.594   2.594   6.141
  114OL     H7R 4899   0.653   2.681   6.177
  114OL     H7S 4900   0.511   2.598   6.214
  114OL     C18 4901   0.542   2.607   5.996
  114OL     H8R 4902   0.473   2.524   5.972
  114OL     H8S 4903   0.622   2.598   5.921
  114OL     C19 4904   0.483   2.739   5.967
  114OL     H9R 4905   0.432   2.784   6.055
  114OL    C110 4906   0.483   2.808   5.850
  114OL    H10R 4907   0.449   2.913   5.849
  114OL    C111 4908   0.536   2.775   5.716
  114OL    H11R 4909   0.635   2.729   5.727
  114OL    H11S 4910   0.543   2.874   5.664
  114OL    C112 4911   0.463   2.682   5.627
  114OL    H12R 4912   0.444   2.583   5.674
  114OL    H12S 4913   0.518   2.675   5.531
  114OL    C113 4914   0.329   2.731   5.598
  114OL    H13R 4915   0.346   2.835   5.560
  114OL    H13S 4916   0.279   2.759   5.689
  114OL    C114 4917   0.256   2.617   5.520
  114OL    H14R 4918   0.153   2.649   5.497
  114OL    H14S 4919   0.229   2.540   5.594
  114OL    C115 4920   0.315   2.553   5.384
  114OL    H15R 4921   0.232   2.498   5.338
  114OL    H15S 4922   0.394   2.486   5.420
  114OL    C116 4923   0.395   2.622   5.266
  114OL    H16R 4924   0.443   2.552   5.196
  114OL    H16S 4925   0.472   2.675   5.322
  114OL    C117 4926   0.339   2.717   5.162
  114OL    H17R 4927   0.341   2.824   5.194
  114OL    H17S 4928   0.242   2.689   5.124
  114OL    C118 4929   0.414   2.750   5.044
  114OL    H18R 4930   0.459   2.732   4.950
  114OL    H18S 4931   0.375   2.655   5.001
  114OL    H18T 4932   0.346   2.826   5.013
  115PA    C116 4933   0.478   3.715   5.386
  115PA    H16R 4934   0.382   3.664   5.359
  115PA    H16S 4935   0.477   3.735   5.496
  115PA    H16T 4936   0.559   3.645   5.368
  115PA    C115 4937   0.482   3.853   5.316
  115PA    H15R 4938   0.440   3.841   5.213
  115PA    H15S 4939   0.424   3.932   5.369
  115PA    C114 4940   0.620   3.910   5.314
  115PA    H14R 4941   0.677   3.818   5.297
  115PA    H14S 4942   0.639   3.982   5.232
  115PA    C113 4943   0.694   3.925   5.443
  115PA    H13R 4944   0.669   4.022   5.489
  115PA    H13S 4945   0.662   3.842   5.511
  115PA    C112 4946   0.844   3.905   5.416
  115PA    H12R 4947   0.868   3.798   5.389
  115PA    H12S 4948   0.874   3.965   5.327
  115PA    C111 4949   0.925   3.947   5.537
  115PA    H11R 4950   1.030   3.916   5.523
  115PA    H11S 4951   0.921   4.058   5.540
  115PA    C110 4952   0.870   3.891   5.669
  115PA    H10R 4953   0.772   3.938   5.693
  115PA    H10S 4954   0.852   3.782   5.657
  115PA     C19 4955   0.968   3.914   5.785
  115PA     H9R 4956   1.071   3.902   5.745
  115PA     H9S 4957   0.958   4.020   5.819
  115PA     C18 4958   0.954   3.817   5.905
  115PA     H8R 4959   0.953   3.712   5.868
  115PA     H8S 4960   1.046   3.828   5.968
  115PA     C17 4961   0.834   3.846   5.996
  115PA     H7R 4962   0.741   3.851   5.935
  115PA     H7S 4963   0.820   3.763   6.068
  115PA     C16 4964   0.853   3.977   6.074
  115PA     H6R 4965   0.943   3.971   6.138
  115PA     H6S 4966   0.869   4.059   6.000
  115PA     C15 4967   0.735   4.019   6.161
  115PA     H5R 4968   0.748   4.127   6.183
  115PA     H5S 4969   0.640   4.010   6.103
  115PA     C14 4970   0.729   3.950   6.298
  115PA     H4R 4971   0.676   3.853   6.283
  115PA     H4S 4972   0.828   3.920   6.335
  115PA     C13 4973   0.665   4.045   6.404
  115PA     H3R 4974   0.715   4.143   6.400
  115PA     H3S 4975   0.564   4.073   6.359
  115PA     C12 4976   0.659   3.998   6.558
  115PA     H2R 4977   0.753   3.979   6.609
  115PA     H2S 4978   0.591   4.073   6.605
  116PC     C11 4979   0.576   3.877   6.562
  116PC     O12 4980   0.515   3.892   6.465
  116PC     O11 4981   0.558   3.788   6.660
  116PC      C1 4982   0.471   3.667   6.663
  116PC      HR 4983   0.387   3.671   6.738
  116PC      HS 4984   0.429   3.627   6.569
  116PC      C2 4985   0.558   3.552   6.705
  116PC      HX 4986   0.496   3.466   6.742
  116PC      C3 4987   0.637   3.609   6.824
  116PC      HA 4988   0.693   3.701   6.797
  116PC      HB 4989   0.559   3.637   6.899
  116PC     O31 4990   0.731   3.514   6.869
  116PC     P31 4991   0.777   3.517   7.020
  116PC     O32 4992   0.803   3.672   7.051
  116PC     C31 4993   0.701   3.755   7.106
  116PC     H1A 4994   0.598   3.717   7.081
  116PC     H1B 4995   0.706   3.755   7.217
  116PC     C32 4996   0.710   3.899   7.049
  116PC     H2A 4997   0.718   3.887   6.941
  116PC     H2B 4998   0.616   3.947   7.070
  116PC     N31 4999   0.824   3.987   7.100
  116PC     C33 5000   0.954   3.921   7.070
  116PC     H3A 5001   0.988   3.942   6.970
  116PC     H3B 5002   1.031   3.954   7.139
  116PC     H3C 5003   0.943   3.812   7.078
  116PC     C34 5004   0.819   4.123   7.036
  116PC     H4A 5005   0.809   4.116   6.928
  116PC     H4B 5006   0.733   4.177   7.074
  116PC     H4C 5007   0.909   4.180   7.057
  116PC     C35 5008   0.814   4.000   7.248
  116PC     H5A 5009   0.724   4.053   7.275
  116PC     H5B 5010   0.898   4.056   7.287
  116PC     H5C 5011   0.812   3.903   7.296
  116PC     O33 5012   0.665   3.467   7.104
  116PC     O34 5013   0.905   3.447   7.031
  116PC     O21 5014   0.640   3.515   6.592
  116PC     C21 5015   0.581   3.432   6.506
  116PC     O22 5016   0.477   3.373   6.527
  117OL     C12 5017   0.665   3.430   6.378
  117OL     H2R 5018   0.757   3.373   6.403
  117OL     H2S 5019   0.694   3.535   6.355
  117OL     C13 5020   0.598   3.364   6.254
  117OL     H3R 5021   0.573   3.258   6.275
  117OL     H3S 5022   0.673   3.369   6.171
  117OL     C14 5023   0.472   3.435   6.206
  117OL     H4R 5024   0.502   3.536   6.170
  117OL     H4S 5025   0.399   3.436   6.290
  117OL     C15 5026   0.397   3.375   6.090
  117OL     H5R 5027   0.311   3.443   6.067
  117OL     H5S 5028   0.354   3.277   6.120
  117OL     C16 5029   0.491   3.366   5.971
  117OL     H6R 5030   0.573   3.294   5.991
  117OL     H6S 5031   0.536   3.467   5.955
  117OL     C17 5032   0.416   3.323   5.847
  117OL     H7R 5033   0.329   3.389   5.838
  117OL     H7S 5034   0.382   3.218   5.861
  117OL     C18 5035   0.495   3.341   5.717
  117OL     H8R 5036   0.435   3.293   5.636
  117OL     H8S 5037   0.590   3.285   5.728
  117OL     C19 5038   0.515   3.489   5.687
  117OL     H9R 5039   0.424   3.550   5.683
  117OL    C110 5040   0.634   3.549   5.666
  117OL    H10R 5041   0.637   3.657   5.646
  117OL    C111 5042   0.768   3.479   5.668
  117OL    H11R 5043   0.776   3.416   5.758
  117OL    H11S 5044   0.851   3.553   5.671
  117OL    C112 5045   0.787   3.392   5.543
  117OL    H12R 5046   0.698   3.328   5.525
  117OL    H12S 5047   0.875   3.325   5.561
  117OL    C113 5048   0.822   3.472   5.419
  117OL    H13R 5049   0.928   3.508   5.427
  117OL    H13S 5050   0.756   3.561   5.406
  117OL    C114 5051   0.819   3.390   5.293
  117OL    H14R 5052   0.896   3.311   5.287
  117OL    H14S 5053   0.824   3.468   5.214
  117OL    C115 5054   0.689   3.334   5.247
  117OL    H15R 5055   0.623   3.422   5.242
  117OL    H15S 5056   0.652   3.256   5.317
  117OL    C116 5057   0.700   3.291   5.103
  117OL    H16R 5058   0.766   3.202   5.107
  117OL    H16S 5059   0.744   3.362   5.034
  117OL    C117 5060   0.560   3.272   5.053
  117OL    H17R 5061   0.500   3.334   5.114
  117OL    H17S 5062   0.552   3.172   5.100
  117OL    C118 5063   0.510   3.297   4.907
  117OL    H18R 5064   0.413   3.268   4.861
  117OL    H18S 5065   0.516   3.207   4.848
  117OL    H18T 5066   0.593   3.340   4.857
  118PA    C116 5067   4.660   0.371   5.419
  118PA    H16R 5068   4.628   0.347   5.520
  118PA    H16S 5069   4.623   0.454   5.359
  118PA    H16T 5070   4.744   0.430   5.457
  118PA    C115 5071   4.663   0.254   5.325
  118PA    H15R 5072   4.564   0.232   5.281
  118PA    H15S 5073   4.711   0.283   5.229
  118PA    C114 5074   4.731   0.139   5.398
  118PA    H14R 5075   4.754   0.056   5.335
  118PA    H14S 5076   4.834   0.159   5.397
  118PA    C113 5077   4.774   0.149   5.544
  118PA    H13R 5078   4.836   0.239   5.569
  118PA    H13S 5079   4.679   0.159   5.599
  118PA    C112 5080   4.865   0.030   5.581
  118PA    H12R 5081   4.848   0.014   5.688
  118PA    H12S 5082   4.830  -0.056   5.520
  118PA    C111 5083   5.019   0.043   5.566
  118PA    H11R 5084   5.049   0.065   5.461
  118PA    H11S 5085   5.057   0.128   5.626
  118PA    C110 5086   5.091  -0.088   5.606
  118PA    H10R 5087   5.040  -0.174   5.560
  118PA    H10S 5088   5.196  -0.084   5.569
  118PA     C19 5089   5.092  -0.124   5.754
  118PA     H9R 5090   4.989  -0.150   5.786
  118PA     H9S 5091   5.155  -0.215   5.767
  118PA     C18 5092   5.146  -0.008   5.836
  118PA     H8R 5093   5.224   0.044   5.777
  118PA     H8S 5094   5.061   0.061   5.852
  118PA     C17 5095   5.206  -0.045   5.972
  118PA     H7R 5096   5.128  -0.096   6.032
  118PA     H7S 5097   5.290  -0.117   5.960
  118PA     C16 5098   5.257   0.082   6.042
  118PA     H6R 5099   5.355   0.107   5.997
  118PA     H6S 5100   5.189   0.167   6.024
  118PA     C15 5101   5.275   0.066   6.193
  118PA     H5R 5102   5.337  -0.026   6.208
  118PA     H5S 5103   5.328   0.154   6.234
  118PA     C14 5104   5.148   0.045   6.276
  118PA     H4R 5105   5.110  -0.055   6.249
  118PA     H4S 5106   5.176   0.039   6.384
  118PA     C13 5107   5.036   0.150   6.260
  118PA     H3R 5108   4.992   0.146   6.158
  118PA     H3S 5109   4.956   0.125   6.334
  118PA     C12 5110   5.070   0.298   6.281
  118PA     H2R 5111   5.173   0.321   6.249
  118PA     H2S 5112   4.998   0.359   6.223
  119PC     C11 5113   5.053   0.332   6.427
  119PC     O12 5114   5.126   0.290   6.514
  119PC     O11 5115   4.951   0.415   6.440
  119PC      C1 5116   4.937   0.463   6.575
  119PC      HR 5117   5.034   0.475   6.628
  119PC      HS 5118   4.887   0.561   6.570
  119PC      C2 5119   4.837   0.383   6.659
  119PC      HX 5120   4.740   0.388   6.606
  119PC      C3 5121   4.821   0.450   6.799
  119PC      HA 5122   4.852   0.556   6.802
  119PC      HB 5123   4.716   0.455   6.814
  119PC     O31 5124   4.867   0.372   6.908
  119PC     P31 5125   5.017   0.394   6.955
  119PC     O32 5126   5.018   0.320   7.095
  119PC     C31 5127   4.893   0.289   7.156
  119PC     H1A 5128   4.905   0.294   7.266
  119PC     H1B 5129   4.814   0.366   7.134
  119PC     C32 5130   4.841   0.154   7.101
  119PC     H2A 5131   4.740   0.141   7.139
  119PC     H2B 5132   4.835   0.165   6.993
  119PC     N31 5133   4.916   0.027   7.138
  119PC     C33 5134   4.838  -0.094   7.099
  119PC     H3A 5135   4.872  -0.135   7.005
  119PC     H3B 5136   4.849  -0.178   7.167
  119PC     H3C 5137   4.731  -0.074   7.089
  119PC     C34 5138   5.050   0.012   7.071
  119PC     H4A 5139   5.121   0.089   7.101
  119PC     H4B 5140   5.092  -0.087   7.088
  119PC     H4C 5141   5.041   0.021   6.962
  119PC     C35 5142   4.928   0.034   7.286
  119PC     H5A 5143   4.844   0.082   7.334
  119PC     H5B 5144   5.017   0.095   7.307
  119PC     H5C 5145   4.945  -0.064   7.327
  119PC     O33 5146   5.104   0.322   6.863
  119PC     O34 5147   5.038   0.538   6.981
  119PC     O21 5148   4.879   0.248   6.669
  119PC     C21 5149   4.797   0.172   6.735
  119PC     O22 5150   4.682   0.195   6.768
  120OL     C12 5151   4.861   0.038   6.752
  120OL     H2R 5152   4.901   0.022   6.852
  120OL     H2S 5153   4.944   0.025   6.678
  120OL     C13 5154   4.744  -0.051   6.722
  120OL     H3R 5155   4.650  -0.040   6.780
  120OL     H3S 5156   4.778  -0.155   6.746
  120OL     C14 5157   4.718  -0.045   6.572
  120OL     H4R 5158   4.651  -0.130   6.573
  120OL     H4S 5159   4.821  -0.067   6.537
  120OL     C15 5160   4.647   0.064   6.482
  120OL     H5R 5161   4.730   0.134   6.457
  120OL     H5S 5162   4.572   0.109   6.548
  120OL     C16 5163   4.564   0.036   6.348
  120OL     H6R 5164   4.480  -0.036   6.349
  120OL     H6S 5165   4.613  -0.017   6.264
  120OL     C17 5166   4.539   0.158   6.267
  120OL     H7R 5167   4.614   0.231   6.306
  120OL     H7S 5168   4.432   0.177   6.280
  120OL     C18 5169   4.574   0.136   6.122
  120OL     H8R 5170   4.516   0.043   6.104
  120OL     H8S 5171   4.685   0.124   6.125
  120OL     C19 5172   4.526   0.210   6.005
  120OL     H9R 5173   4.416   0.208   6.002
  120OL    C110 5174   4.594   0.258   5.902
  120OL    H10R 5175   4.535   0.316   5.832
  120OL    C111 5176   4.741   0.250   5.867
  120OL    H11R 5177   4.744   0.286   5.764
  120OL    H11S 5178   4.788   0.151   5.853
  120OL    C112 5179   4.829   0.330   5.963
  120OL    H12R 5180   4.826   0.292   6.067
  120OL    H12S 5181   4.796   0.436   5.960
  120OL    C113 5182   4.970   0.343   5.915
  120OL    H13R 5183   5.021   0.246   5.900
  120OL    H13S 5184   5.033   0.404   5.984
  120OL    C114 5185   4.961   0.412   5.784
  120OL    H14R 5186   4.924   0.514   5.789
  120OL    H14S 5187   4.901   0.365   5.704
  120OL    C115 5188   5.096   0.414   5.737
  120OL    H15R 5189   5.152   0.317   5.742
  120OL    H15S 5190   5.151   0.491   5.793
  120OL    C116 5191   5.090   0.456   5.601
  120OL    H16R 5192   5.039   0.556   5.594
  120OL    H16S 5193   5.026   0.410   5.533
  120OL    C117 5194   5.237   0.435   5.579
  120OL    H17R 5195   5.317   0.491   5.613
  120OL    H17S 5196   5.209   0.529   5.538
  120OL    C118 5197   5.315   0.328   5.501
  120OL    H18R 5198   5.406   0.379   5.461
  120OL    H18S 5199   5.263   0.285   5.414
  120OL    H18T 5200   5.347   0.253   5.574
  121PA    C116 5201   0.678   0.758   5.411
  121PA    H16R 5202   0.665   0.699   5.317
  121PA    H16S 5203   0.639   0.861   5.393
  121PA    H16T 5204   0.620   0.707   5.487
  121PA    C115 5205   0.825   0.769   5.448
  121PA    H15R 5206   0.887   0.818   5.374
  121PA    H15S 5207   0.831   0.835   5.535
  121PA    C114 5208   0.914   0.645   5.444
  121PA    H14R 5209   0.877   0.589   5.530
  121PA    H14S 5210   0.896   0.590   5.349
  121PA    C113 5211   1.065   0.677   5.453
  121PA    H13R 5212   1.099   0.740   5.367
  121PA    H13S 5213   1.084   0.735   5.546
  121PA    C112 5214   1.153   0.554   5.451
  121PA    H12R 5215   1.141   0.501   5.354
  121PA    H12S 5216   1.260   0.583   5.462
  121PA    C111 5217   1.116   0.458   5.563
  121PA    H11R 5218   1.108   0.511   5.661
  121PA    H11S 5219   1.016   0.415   5.541
  121PA    C110 5220   1.219   0.347   5.570
  121PA    H10R 5221   1.249   0.318   5.467
  121PA    H10S 5222   1.308   0.384   5.625
  121PA     C19 5223   1.161   0.222   5.633
  121PA     H9R 5224   1.080   0.182   5.568
  121PA     H9S 5225   1.242   0.145   5.639
  121PA     C18 5226   1.102   0.241   5.771
  121PA     H8R 5227   1.174   0.297   5.835
  121PA     H8S 5228   1.006   0.298   5.770
  121PA     C17 5229   1.072   0.101   5.820
  121PA     H7R 5230   1.006   0.044   5.753
  121PA     H7S 5231   1.169   0.045   5.821
  121PA     C16 5232   1.012   0.100   5.959
  121PA     H6R 5233   1.003  -0.006   5.990
  121PA     H6S 5234   1.097   0.155   5.999
  121PA     C15 5235   0.896   0.190   6.003
  121PA     H5R 5236   0.930   0.293   5.980
  121PA     H5S 5237   0.811   0.161   5.939
  121PA     C14 5238   0.859   0.209   6.154
  121PA     H4R 5239   0.923   0.286   6.197
  121PA     H4S 5240   0.756   0.240   6.166
  121PA     C13 5241   0.849   0.094   6.251
  121PA     H3R 5242   0.754   0.072   6.209
  121PA     H3S 5243   0.918   0.016   6.216
  121PA     C12 5244   0.837   0.113   6.410
  121PA     H2R 5245   0.755   0.182   6.427
  121PA     H2S 5246   0.759   0.049   6.421
  122PC     C11 5247   0.868   0.010   6.532
  122PC     O12 5248   0.930  -0.097   6.536
  122PC     O11 5249   0.805   0.055   6.633
  122PC      C1 5250   0.902   0.061   6.736
  122PC      HR 5251   0.881  -0.020   6.801
  122PC      HS 5252   1.004   0.046   6.704
  122PC      C2 5253   0.916   0.201   6.785
  122PC      HX 5254   0.970   0.263   6.708
  122PC      C3 5255   0.999   0.206   6.912
  122PC      HA 5256   0.961   0.124   6.977
  122PC      HB 5257   1.106   0.184   6.897
  122PC     O31 5258   0.988   0.336   6.967
  122PC     P31 5259   0.913   0.347   7.105
  122PC     O32 5260   0.902   0.503   7.114
  122PC     C31 5261   0.790   0.568   7.057
  122PC     H1A 5262   0.781   0.549   6.947
  122PC     H1B 5263   0.697   0.530   7.106
  122PC     C32 5264   0.801   0.719   7.088
  122PC     H2A 5265   0.707   0.765   7.064
  122PC     H2B 5266   0.820   0.720   7.195
  122PC     N31 5267   0.916   0.796   7.023
  122PC     C33 5268   0.915   0.779   6.874
  122PC     H3A 5269   0.990   0.841   6.826
  122PC     H3B 5270   0.936   0.675   6.846
  122PC     H3C 5271   0.819   0.805   6.831
  122PC     C34 5272   0.912   0.941   7.054
  122PC     H4A 5273   0.943   0.960   7.156
  122PC     H4B 5274   0.983   0.996   6.991
  122PC     H4C 5275   0.816   0.988   7.036
  122PC     C35 5276   1.041   0.740   7.084
  122PC     H5A 5277   1.034   0.744   7.192
  122PC     H5B 5278   1.130   0.790   7.051
  122PC     H5C 5279   1.047   0.633   7.061
  122PC     O33 5280   0.775   0.290   7.095
  122PC     O34 5281   1.003   0.294   7.207
  122PC     O21 5282   0.784   0.247   6.809
  122PC     C21 5283   0.724   0.290   6.703
  122PC     O22 5284   0.773   0.317   6.595
  123OL     C12 5285   0.579   0.311   6.737
  123OL     H2R 5286   0.578   0.337   6.845
  123OL     H2S 5287   0.524   0.217   6.720
  123OL     C13 5288   0.526   0.429   6.655
  123OL     H3R 5289   0.422   0.453   6.687
  123OL     H3S 5290   0.521   0.402   6.547
  123OL     C14 5291   0.614   0.553   6.676
  123OL     H4R 5292   0.721   0.533   6.653
  123OL     H4S 5293   0.611   0.579   6.784
  123OL     C15 5294   0.574   0.676   6.593
  123OL     H5R 5295   0.643   0.759   6.621
  123OL     H5S 5296   0.470   0.705   6.621
  123OL     C16 5297   0.587   0.657   6.441
  123OL     H6R 5298   0.541   0.746   6.392
  123OL     H6S 5299   0.530   0.568   6.406
  123OL     C17 5300   0.735   0.648   6.400
  123OL     H7R 5301   0.786   0.568   6.459
  123OL     H7S 5302   0.781   0.746   6.427
  123OL     C18 5303   0.765   0.625   6.252
  123OL     H8R 5304   0.873   0.644   6.234
  123OL     H8S 5305   0.709   0.700   6.192
  123OL     C19 5306   0.740   0.484   6.211
  123OL     H9R 5307   0.785   0.410   6.279
  123OL    C110 5308   0.678   0.445   6.098
  123OL    H10R 5309   0.650   0.342   6.076
  123OL    C111 5310   0.623   0.528   5.994
  123OL    H11R 5311   0.621   0.632   6.031
  123OL    H11S 5312   0.521   0.486   5.982
  123OL    C112 5313   0.681   0.534   5.854
  123OL    H12R 5314   0.778   0.586   5.857
  123OL    H12S 5315   0.612   0.593   5.790
  123OL    C113 5316   0.692   0.396   5.794
  123OL    H13R 5317   0.595   0.341   5.799
  123OL    H13S 5318   0.766   0.339   5.852
  123OL    C114 5319   0.740   0.408   5.651
  123OL    H14R 5320   0.843   0.451   5.658
  123OL    H14S 5321   0.675   0.478   5.594
  123OL    C115 5322   0.743   0.274   5.582
  123OL    H15R 5323   0.643   0.227   5.593
  123OL    H15S 5324   0.817   0.207   5.632
  123OL    C116 5325   0.775   0.288   5.433
  123OL    H16R 5326   0.874   0.333   5.414
  123OL    H16S 5327   0.697   0.347   5.380
  123OL    C117 5328   0.775   0.150   5.375
  123OL    H17R 5329   0.681   0.104   5.406
  123OL    H17S 5330   0.856   0.098   5.425
  123OL    C118 5331   0.798   0.142   5.227
  123OL    H18R 5332   0.888   0.202   5.208
  123OL    H18S 5333   0.710   0.179   5.170
  123OL    H18T 5334   0.822   0.041   5.190
  124PA    C116 5335   5.102   5.316   5.310
  124PA    H16R 5336   5.055   5.328   5.209
  124PA    H16S 5337   5.168   5.406   5.309
  124PA    H16T 5338   5.022   5.331   5.379
  124PA    C115 5339   5.174   5.176   5.315
  124PA    H15R 5340   5.137   5.119   5.228
  124PA    H15S 5341   5.259   5.234   5.284
  124PA    C114 5342   5.292   5.098   5.393
  124PA    H14R 5343   5.373   5.167   5.416
  124PA    H14S 5344   5.257   5.075   5.491
  124PA    C113 5345   5.359   4.967   5.328
  124PA    H13R 5346   5.363   5.041   5.250
  124PA    H13S 5347   5.427   4.943   5.243
  124PA    C112 5348   5.477   4.892   5.395
  124PA    H12R 5349   5.541   4.823   5.333
  124PA    H12S 5350   5.555   4.952   5.443
  124PA    C111 5351   5.408   4.830   5.503
  124PA    H11R 5352   5.327   4.899   5.535
  124PA    H11S 5353   5.362   4.738   5.462
  124PA    C110 5354   5.506   4.824   5.615
  124PA    H10R 5355   5.586   4.753   5.587
  124PA    H10S 5356   5.556   4.920   5.638
  124PA     C19 5357   5.417   4.800   5.731
  124PA     H9R 5358   5.343   4.883   5.741
  124PA     H9S 5359   5.365   4.705   5.704
  124PA     C18 5360   5.499   4.783   5.855
  124PA     H8R 5361   5.443   4.715   5.922
  124PA     H8S 5362   5.591   4.729   5.825
  124PA     C17 5363   5.533   4.911   5.932
  124PA     H7R 5364   5.585   4.988   5.870
  124PA     H7S 5365   5.440   4.957   5.970
  124PA     C16 5366   5.623   4.868   6.047
  124PA     H6R 5367   5.607   4.761   6.073
  124PA     H6S 5368   5.723   4.870   6.007
  124PA     C15 5369   5.614   4.954   6.173
  124PA     H5R 5370   5.695   4.924   6.244
  124PA     H5S 5371   5.632   5.061   6.145
  124PA     C14 5372   5.472   4.932   6.227
  124PA     H4R 5373   5.410   5.016   6.192
  124PA     H4S 5374   5.436   4.839   6.178
  124PA     C13 5375   5.450   4.904   6.376
  124PA     H3R 5376   5.357   4.846   6.389
  124PA     H3S 5377   5.536   4.843   6.414
  124PA     C12 5378   5.430   5.033   6.456
  124PA     H2R 5379   5.530   5.065   6.430
  124PA     H2S 5380   5.369   5.113   6.412
  125PC     C11 5381   5.398   5.011   6.608
  125PC     O12 5382   5.370   4.903   6.655
  125PC     O11 5383   5.416   5.122   6.686
  125PC      C1 5384   5.412   5.110   6.832
  125PC      HR 5385   5.410   5.006   6.869
  125PC      HS 5386   5.492   5.158   6.892
  125PC      C2 5387   5.316   5.207   6.892
  125PC      HX 5388   5.344   5.310   6.853
  125PC      C3 5389   5.323   5.216   7.045
  125PC      HA 5390   5.424   5.247   7.078
  125PC      HB 5391   5.254   5.298   7.077
  125PC     O31 5392   5.293   5.088   7.100
  125PC     P31 5393   5.158   5.070   7.182
  125PC     O32 5394   5.119   4.919   7.143
  125PC     C31 5395   5.217   4.818   7.162
  125PC     H1A 5396   5.315   4.856   7.131
  125PC     H1B 5397   5.223   4.789   7.269
  125PC     C32 5398   5.189   4.694   7.073
  125PC     H2A 5399   5.246   4.611   7.113
  125PC     H2B 5400   5.084   4.673   7.088
  125PC     N31 5401   5.219   4.707   6.923
  125PC     C33 5402   5.366   4.715   6.894
  125PC     H3A 5403   5.416   4.620   6.910
  125PC     H3B 5404   5.381   4.738   6.788
  125PC     H3C 5405   5.413   4.794   6.950
  125PC     C34 5406   5.166   4.591   6.846
  125PC     H4A 5407   5.192   4.603   6.742
  125PC     H4B 5408   5.211   4.499   6.880
  125PC     H4C 5409   5.059   4.586   6.856
  125PC     C35 5410   5.153   4.830   6.870
  125PC     H5A 5411   5.045   4.825   6.878
  125PC     H5B 5412   5.182   4.849   6.767
  125PC     H5C 5413   5.182   4.916   6.931
  125PC     O33 5414   5.196   5.076   7.325
  125PC     O34 5415   5.056   5.165   7.132
  125PC     O21 5416   5.194   5.159   6.848
  125PC     C21 5417   5.109   5.248   6.819
  125PC     O22 5418   5.119   5.369   6.829
  126OL     C12 5419   5.002   5.170   6.747
  126OL     H2R 5420   4.921   5.241   6.730
  126OL     H2S 5421   4.968   5.092   6.819
  126OL     C13 5422   5.058   5.108   6.615
  126OL     H3R 5423   5.150   5.051   6.636
  126OL     H3S 5424   5.083   5.191   6.545
  126OL     C14 5425   4.963   5.009   6.544
  126OL     H4R 5426   4.915   5.057   6.457
  126OL     H4S 5427   4.887   4.976   6.617
  126OL     C15 5428   5.019   4.890   6.469
  126OL     H5R 5429   4.930   4.835   6.431
  126OL     H5S 5430   5.074   4.826   6.541
  126OL     C16 5431   5.103   4.926   6.346
  126OL     H6R 5432   5.152   4.833   6.310
  126OL     H6S 5433   5.182   4.999   6.375
  126OL     C17 5434   5.023   4.986   6.229
  126OL     H7R 5435   4.993   5.090   6.258
  126OL     H7S 5436   4.929   4.928   6.212
  126OL     C18 5437   5.105   4.997   6.099
  126OL     H8R 5438   5.203   5.042   6.126
  126OL     H8S 5439   5.054   5.073   6.035
  126OL     C19 5440   5.133   4.872   6.020
  126OL     H9R 5441   5.209   4.805   6.063
  126OL    C110 5442   5.069   4.829   5.910
  126OL    H10R 5443   5.102   4.737   5.860
  126OL    C111 5444   4.953   4.896   5.842
  126OL    H11R 5445   4.883   4.937   5.918
  126OL    H11S 5446   4.898   4.817   5.786
  126OL    C112 5447   4.984   5.006   5.740
  126OL    H12R 5448   5.047   5.083   5.789
  126OL    H12S 5449   4.890   5.058   5.709
  126OL    C113 5450   5.054   4.955   5.614
  126OL    H13R 5451   5.134   4.883   5.640
  126OL    H13S 5452   5.097   5.045   5.569
  126OL    C114 5453   4.963   4.895   5.505
  126OL    H14R 5454   4.889   4.974   5.482
  126OL    H14S 5455   4.912   4.805   5.546
  126OL    C115 5456   5.039   4.859   5.376
  126OL    H15R 5457   5.105   4.772   5.397
  126OL    H15S 5458   5.100   4.944   5.346
  126OL    C116 5459   4.958   4.816   5.255
  126OL    H16R 5460   4.866   4.760   5.285
  126OL    H16S 5461   5.025   4.761   5.184
  126OL    C117 5462   4.916   4.916   5.157
  126OL    H17R 5463   4.993   4.961   5.096
  126OL    H17S 5464   4.896   5.001   5.224
  126OL    C118 5465   4.801   4.857   5.071
  126OL    H18R 5466   4.753   4.932   5.011
  126OL    H18S 5467   4.716   4.822   5.132
  126OL    H18T 5468   4.829   4.784   4.994
  127PA    C116 5469   5.249   3.322   5.039
  127PA    H16R 5470   5.191   3.326   5.134
  127PA    H16S 5471   5.204   3.222   5.024
  127PA    H16T 5472   5.217   3.371   4.946
  127PA    C115 5473   5.401   3.359   5.082
  127PA    H15R 5474   5.467   3.310   5.015
  127PA    H15S 5475   5.446   3.452   5.053
  127PA    C114 5476   5.452   3.315   5.220
  127PA    H14R 5477   5.379   3.239   5.220
  127PA    H14S 5478   5.553   3.287   5.242
  127PA    C113 5479   5.457   3.360   5.362
  127PA    H13R 5480   5.492   3.465   5.351
  127PA    H13S 5481   5.355   3.330   5.390
  127PA    C112 5482   5.541   3.280   5.468
  127PA    H12R 5483   5.488   3.190   5.507
  127PA    H12S 5484   5.639   3.237   5.447
  127PA    C111 5485   5.568   3.380   5.573
  127PA    H11R 5486   5.639   3.454   5.532
  127PA    H11S 5487   5.470   3.430   5.581
  127PA    C110 5488   5.618   3.315   5.700
  127PA    H10R 5489   5.552   3.230   5.729
  127PA    H10S 5490   5.720   3.277   5.682
  127PA     C19 5491   5.621   3.419   5.808
  127PA     H9R 5492   5.682   3.394   5.896
  127PA     H9S 5493   5.655   3.516   5.763
  127PA     C18 5494   5.487   3.444   5.867
  127PA     H8R 5495   5.508   3.530   5.923
  127PA     H8S 5496   5.421   3.480   5.788
  127PA     C17 5497   5.423   3.350   5.964
  127PA     H7R 5498   5.430   3.248   5.918
  127PA     H7S 5499   5.472   3.343   6.063
  127PA     C16 5500   5.274   3.387   5.983
  127PA     H6R 5501   5.214   3.382   5.896
  127PA     H6S 5502   5.248   3.314   6.058
  127PA     C15 5503   5.191   3.488   6.056
  127PA     H5R 5504   5.206   3.586   6.014
  127PA     H5S 5505   5.084   3.463   6.030
  127PA     C14 5506   5.218   3.484   6.204
  127PA     H4R 5507   5.329   3.487   6.211
  127PA     H4S 5508   5.169   3.575   6.242
  127PA     C13 5509   5.169   3.361   6.283
  127PA     H3R 5510   5.059   3.349   6.267
  127PA     H3S 5511   5.227   3.273   6.248
  127PA     C12 5512   5.201   3.372   6.433
  127PA     H2R 5513   5.311   3.379   6.440
  127PA     H2S 5514   5.146   3.462   6.466
  128PC     C11 5515   5.155   3.263   6.530
  128PC     O12 5516   5.042   3.223   6.537
  128PC     O11 5517   5.252   3.212   6.598
  128PC      C1 5518   5.207   3.080   6.643
  128PC      HR 5519   5.112   3.075   6.702
  128PC      HS 5520   5.194   3.010   6.557
  128PC      C2 5521   5.321   3.032   6.730
  128PC      HX 5522   5.313   2.922   6.748
  128PC      C3 5523   5.314   3.105   6.864
  128PC      HA 5524   5.325   3.215   6.847
  128PC      HB 5525   5.215   3.088   6.912
  128PC     O31 5526   5.418   3.050   6.942
  128PC     P31 5527   5.451   3.105   7.083
  128PC     O32 5528   5.559   3.217   7.053
  128PC     C31 5529   5.656   3.232   7.156
  128PC     H1A 5530   5.705   3.331   7.144
  128PC     H1B 5531   5.609   3.232   7.258
  128PC     C32 5532   5.761   3.119   7.149
  128PC     H2A 5533   5.826   3.131   7.234
  128PC     H2B 5534   5.704   3.026   7.162
  128PC     N31 5535   5.846   3.102   7.024
  128PC     C33 5536   5.942   2.993   7.055
  128PC     H3A 5537   5.986   3.010   7.153
  128PC     H3B 5538   5.889   2.898   7.061
  128PC     H3C 5539   6.021   2.988   6.982
  128PC     C34 5540   5.760   3.063   6.906
  128PC     H4A 5541   5.815   3.053   6.814
  128PC     H4B 5542   5.706   2.970   6.924
  128PC     H4C 5543   5.681   3.138   6.890
  128PC     C35 5544   5.921   3.230   6.996
  128PC     H5A 5545   5.985   3.222   6.909
  128PC     H5B 5546   5.985   3.260   7.079
  128PC     H5C 5547   5.851   3.311   6.978
  128PC     O33 5548   5.335   3.170   7.148
  128PC     O34 5549   5.519   2.997   7.159
  128PC     O21 5550   5.446   3.065   6.666
  128PC     C21 5551   5.461   3.006   6.550
  128PC     O22 5552   5.401   2.909   6.510
  129OL     C12 5553   5.567   3.079   6.471
  129OL     H2R 5554   5.663   3.056   6.520
  129OL     H2S 5555   5.548   3.188   6.477
  129OL     C13 5556   5.565   3.029   6.326
  129OL     H3R 5557   5.465   3.045   6.279
  129OL     H3S 5558   5.584   2.918   6.327
  129OL     C14 5559   5.673   3.100   6.244
  129OL     H4R 5560   5.771   3.075   6.290
  129OL     H4S 5561   5.658   3.210   6.251
  129OL     C15 5562   5.676   3.060   6.097
  129OL     H5R 5563   5.757   3.118   6.047
  129OL     H5S 5564   5.581   3.087   6.047
  129OL     C16 5565   5.707   2.912   6.081
  129OL     H6R 5566   5.628   2.845   6.121
  129OL     H6S 5567   5.797   2.890   6.143
  129OL     C17 5568   5.750   2.878   5.936
  129OL     H7R 5569   5.792   2.776   5.948
  129OL     H7S 5570   5.820   2.960   5.917
  129OL     C18 5571   5.656   2.883   5.815
  129OL     H8R 5572   5.674   2.884   5.706
  129OL     H8S 5573   5.616   2.985   5.828
  129OL     C19 5574   5.589   2.762   5.868
  129OL     H9R 5575   5.546   2.831   5.933
  129OL    C110 5576   5.518   2.654   5.830
  129OL    H10R 5577   5.416   2.641   5.862
  129OL    C111 5578   5.529   2.624   5.691
  129OL    H11R 5579   5.593   2.540   5.698
  129OL    H11S 5580   5.577   2.709   5.641
  129OL    C112 5581   5.427   2.555   5.609
  129OL    H12R 5582   5.334   2.519   5.661
  129OL    H12S 5583   5.469   2.481   5.536
  129OL    C113 5584   5.375   2.652   5.518
  129OL    H13R 5585   5.314   2.706   5.587
  129OL    H13S 5586   5.309   2.582   5.464
  129OL    C114 5587   5.455   2.763   5.449
  129OL    H14R 5588   5.529   2.821   5.504
  129OL    H14S 5589   5.386   2.843   5.436
  129OL    C115 5590   5.486   2.724   5.311
  129OL    H15R 5591   5.396   2.707   5.254
  129OL    H15S 5592   5.528   2.626   5.337
  129OL    C116 5593   5.574   2.810   5.220
  129OL    H16R 5594   5.540   2.863   5.133
  129OL    H16S 5595   5.609   2.729   5.164
  129OL    C117 5596   5.674   2.906   5.279
  129OL    H17R 5597   5.648   2.975   5.362
  129OL    H17S 5598   5.725   2.972   5.205
  129OL    C118 5599   5.737   2.847   5.381
  129OL    H18R 5600   5.820   2.917   5.367
  129OL    H18S 5601   5.718   2.744   5.342
  129OL    H18T 5602   5.829   2.796   5.379
  130PA    C116 5603   1.042   5.375   5.224
  130PA    H16R 5604   1.134   5.316   5.242
  130PA    H16S 5605   1.068   5.474   5.182
  130PA    H16T 5606   0.977   5.319   5.154
  130PA    C115 5607   0.963   5.389   5.351
  130PA    H15R 5608   0.866   5.438   5.331
  130PA    H15S 5609   0.935   5.286   5.382
  130PA    C114 5610   1.043   5.464   5.456
  130PA    H14R 5611   1.122   5.525   5.409
  130PA    H14S 5612   0.980   5.531   5.518
  130PA    C113 5613   1.102   5.372   5.559
  130PA    H13R 5614   1.170   5.294   5.521
  130PA    H13S 5615   1.147   5.437   5.638
  130PA    C112 5616   0.993   5.302   5.630
  130PA    H12R 5617   0.928   5.390   5.653
  130PA    H12S 5618   0.933   5.229   5.572
  130PA    C111 5619   1.030   5.260   5.768
  130PA    H11R 5620   1.037   5.351   5.830
  130PA    H11S 5621   0.957   5.197   5.818
  130PA    C110 5622   1.112   5.142   5.796
  130PA    H10R 5623   1.068   5.043   5.774
  130PA    H10S 5624   1.193   5.153   5.725
  130PA     C19 5625   1.126   5.161   5.948
  130PA     H9R 5626   1.217   5.104   5.969
  130PA     H9S 5627   1.139   5.269   5.974
  130PA     C18 5628   1.012   5.114   6.042
  130PA     H8R 5629   0.948   5.194   6.084
  130PA     H8S 5630   0.935   5.055   5.991
  130PA     C17 5631   1.082   5.052   6.161
  130PA     H7R 5632   1.014   5.000   6.228
  130PA     H7S 5633   1.157   4.978   6.127
  130PA     C16 5634   1.141   5.167   6.243
  130PA     H6R 5635   1.211   5.226   6.180
  130PA     H6S 5636   1.058   5.235   6.274
  130PA     C15 5637   1.213   5.123   6.370
  130PA     H5R 5638   1.138   5.091   6.445
  130PA     H5S 5639   1.281   5.038   6.350
  130PA     C14 5640   1.292   5.237   6.432
  130PA     H4R 5641   1.233   5.328   6.425
  130PA     H4S 5642   1.302   5.218   6.541
  130PA     C13 5643   1.432   5.257   6.372
  130PA     H3R 5644   1.474   5.158   6.346
  130PA     H3S 5645   1.424   5.318   6.278
  130PA     C12 5646   1.525   5.325   6.473
  130PA     H2R 5647   1.544   5.261   6.561
  130PA     H2S 5648   1.621   5.355   6.425
  131PC     C11 5649   1.457   5.449   6.519
  131PC     O12 5650   1.420   5.538   6.446
  131PC     O11 5651   1.445   5.448   6.652
  131PC      C1 5652   1.368   5.557   6.703
  131PC      HR 5653   1.404   5.585   6.803
  131PC      HS 5654   1.369   5.650   6.640
  131PC      C2 5655   1.224   5.512   6.714
  131PC      HX 5656   1.175   5.597   6.764
  131PC      C3 5657   1.196   5.386   6.802
  131PC      HA 5658   1.251   5.302   6.756
  131PC      HB 5659   1.240   5.416   6.898
  131PC     O31 5660   1.057   5.352   6.820
  131PC     P31 5661   0.985   5.324   6.961
  131PC     O32 5662   1.108   5.320   7.060
  131PC     C31 5663   1.097   5.212   7.152
  131PC     H1A 5664   1.010   5.225   7.220
  131PC     H1B 5665   1.081   5.114   7.100
  131PC     C32 5666   1.226   5.204   7.233
  131PC     H2A 5667   1.230   5.293   7.294
  131PC     H2B 5668   1.211   5.120   7.300
  131PC     N31 5669   1.355   5.181   7.156
  131PC     C33 5670   1.329   5.061   7.069
  131PC     H3A 5671   1.315   4.972   7.129
  131PC     H3B 5672   1.234   5.076   7.017
  131PC     H3C 5673   1.406   5.043   6.996
  131PC     C34 5674   1.394   5.299   7.072
  131PC     H4A 5675   1.306   5.331   7.018
  131PC     H4B 5676   1.421   5.382   7.136
  131PC     H4C 5677   1.475   5.278   7.004
  131PC     C35 5678   1.464   5.151   7.250
  131PC     H5A 5679   1.553   5.120   7.198
  131PC     H5B 5680   1.435   5.071   7.319
  131PC     H5C 5681   1.492   5.238   7.309
  131PC     O33 5682   0.902   5.438   7.003
  131PC     O34 5683   0.921   5.192   6.954
  131PC     O21 5684   1.178   5.491   6.582
  131PC     C21 5685   1.158   5.599   6.512
  131PC     O22 5686   1.156   5.714   6.553
  132OL     C12 5687   1.120   5.558   6.377
  132OL     H2R 5688   1.026   5.507   6.368
  132OL     H2S 5689   1.155   5.465   6.336
  132OL     C13 5690   1.110   5.689   6.308
  132OL     H3R 5691   1.045   5.769   6.350
  132OL     H3S 5692   1.058   5.655   6.220
  132OL     C14 5693   1.209   5.715   6.206
  132OL     H4R 5694   1.288   5.768   6.259
  132OL     H4S 5695   1.159   5.791   6.139
  132OL     C15 5696   1.235   5.573   6.143
  132OL     H5R 5697   1.145   5.514   6.116
  132OL     H5S 5698   1.282   5.498   6.210
  132OL     C16 5699   1.327   5.580   6.029
  132OL     H6R 5700   1.299   5.652   5.949
  132OL     H6S 5701   1.339   5.477   5.989
  132OL     C17 5702   1.447   5.636   6.097
  132OL     H7R 5703   1.455   5.580   6.194
  132OL     H7S 5704   1.424   5.744   6.116
  132OL     C18 5705   1.570   5.625   6.014
  132OL     H8R 5706   1.661   5.673   6.048
  132OL     H8S 5707   1.545   5.679   5.921
  132OL     C19 5708   1.608   5.482   6.014
  132OL     H9R 5709   1.640   5.443   6.112
  132OL    C110 5710   1.597   5.408   5.905
  132OL    H10R 5711   1.637   5.305   5.908
  132OL    C111 5712   1.545   5.465   5.775
  132OL    H11R 5713   1.624   5.475   5.701
  132OL    H11S 5714   1.511   5.570   5.779
  132OL    C112 5715   1.426   5.395   5.712
  132OL    H12R 5716   1.410   5.445   5.613
  132OL    H12S 5717   1.337   5.415   5.775
  132OL    C113 5718   1.442   5.244   5.691
  132OL    H13R 5719   1.350   5.213   5.637
  132OL    H13S 5720   1.445   5.192   5.790
  132OL    C114 5721   1.564   5.204   5.609
  132OL    H14R 5722   1.655   5.214   5.672
  132OL    H14S 5723   1.571   5.277   5.525
  132OL    C115 5724   1.563   5.062   5.549
  132OL    H15R 5725   1.577   4.991   5.633
  132OL    H15S 5726   1.650   5.051   5.481
  132OL    C116 5727   1.431   5.026   5.479
  132OL    H16R 5728   1.378   5.119   5.447
  132OL    H16S 5729   1.368   4.980   5.555
  132OL    C117 5730   1.436   4.935   5.357
  132OL    H17R 5731   1.334   4.894   5.340
  132OL    H17S 5732   1.503   4.847   5.372
  132OL    C118 5733   1.476   5.012   5.232
  132OL    H18R 5734   1.392   5.077   5.198
  132OL    H18S 5735   1.503   4.940   5.153
  132OL    H18T 5736   1.566   5.073   5.247
  133PA    C116 5737   0.614   4.388   5.357
  133PA    H16R 5738   0.638   4.494   5.334
  133PA    H16S 5739   0.646   4.324   5.274
  133PA    H16T 5740   0.675   4.357   5.445
  133PA    C115 5741   0.464   4.370   5.385
  133PA    H15R 5742   0.398   4.370   5.297
  133PA    H15S 5743   0.448   4.268   5.426
  133PA    C114 5744   0.407   4.483   5.469
  133PA    H14R 5745   0.432   4.581   5.422
  133PA    H14S 5746   0.296   4.473   5.469
  133PA    C113 5747   0.465   4.477   5.609
  133PA    H13R 5748   0.474   4.370   5.636
  133PA    H13S 5749   0.567   4.521   5.610
  133PA    C112 5750   0.376   4.548   5.711
  133PA    H12R 5751   0.270   4.544   5.679
  133PA    H12S 5752   0.383   4.493   5.808
  133PA    C111 5753   0.420   4.693   5.734
  133PA    H11R 5754   0.513   4.692   5.794
  133PA    H11S 5755   0.440   4.742   5.636
  133PA    C110 5756   0.315   4.776   5.805
  133PA    H10R 5757   0.230   4.791   5.735
  133PA    H10S 5758   0.278   4.718   5.894
  133PA     C19 5759   0.367   4.913   5.847
  133PA     H9R 5760   0.439   4.950   5.771
  133PA     H9S 5761   0.282   4.986   5.850
  133PA     C18 5762   0.428   4.905   5.987
  133PA     H8R 5763   0.357   4.939   6.067
  133PA     H8S 5764   0.459   4.802   6.013
  133PA     C17 5765   0.546   4.995   6.009
  133PA     H7R 5766   0.635   4.950   5.961
  133PA     H7S 5767   0.525   5.090   5.957
  133PA     C16 5768   0.564   5.009   6.161
  133PA     H6R 5769   0.494   5.088   6.199
  133PA     H6S 5770   0.547   4.916   6.217
  133PA     C15 5771   0.706   5.051   6.181
  133PA     H5R 5772   0.777   5.010   6.108
  133PA     H5S 5773   0.680   5.150   6.144
  133PA     C14 5774   0.768   5.052   6.322
  133PA     H4R 5775   0.861   5.116   6.325
  133PA     H4S 5776   0.700   5.098   6.395
  133PA     C13 5777   0.818   4.916   6.363
  133PA     H3R 5778   0.734   4.843   6.362
  133PA     H3S 5779   0.889   4.876   6.288
  133PA     C12 5780   0.889   4.928   6.497
  133PA     H2R 5781   0.945   4.835   6.518
  133PA     H2S 5782   0.960   5.014   6.499
  134PC     C11 5783   0.792   4.951   6.611
  134PC     O12 5784   0.828   4.974   6.725
  134PC     O11 5785   0.667   4.937   6.573
  134PC      C1 5786   0.575   4.932   6.682
  134PC      HR 5787   0.612   4.870   6.768
  134PC      HS 5788   0.551   5.034   6.719
  134PC      C2 5789   0.448   4.864   6.629
  134PC      HX 5790   0.414   4.928   6.544
  134PC      C3 5791   0.338   4.863   6.738
  134PC      HA 5792   0.346   4.959   6.790
  134PC      HB 5793   0.240   4.855   6.687
  134PC     O31 5794   0.351   4.759   6.834
  134PC     P31 5795   0.388   4.792   6.985
  134PC     O32 5796   0.514   4.700   7.011
  134PC     C31 5797   0.505   4.559   6.995
  134PC     H1A 5798   0.399   4.524   6.980
  134PC     H1B 5799   0.563   4.528   6.906
  134PC     C32 5800   0.557   4.491   7.123
  134PC     H2A 5801   0.493   4.527   7.204
  134PC     H2B 5802   0.534   4.385   7.112
  134PC     N31 5803   0.704   4.509   7.157
  134PC     C33 5804   0.736   4.654   7.186
  134PC     H3A 5805   0.695   4.717   7.105
  134PC     H3B 5806   0.691   4.691   7.276
  134PC     H3C 5807   0.843   4.671   7.189
  134PC     C34 5808   0.738   4.424   7.274
  134PC     H4A 5809   0.732   4.320   7.245
  134PC     H4B 5810   0.839   4.445   7.310
  134PC     H4C 5811   0.668   4.440   7.354
  134PC     C35 5812   0.792   4.473   7.042
  134PC     H5A 5813   0.899   4.485   7.065
  134PC     H5B 5814   0.771   4.539   6.958
  134PC     H5C 5815   0.778   4.372   7.009
  134PC     O33 5816   0.428   4.933   6.995
  134PC     O34 5817   0.274   4.748   7.068
  134PC     O21 5818   0.479   4.729   6.590
  134PC     C21 5819   0.427   4.691   6.476
  134PC     O22 5820   0.365   4.762   6.399
  135OL     C12 5821   0.454   4.541   6.458
  135OL     H2R 5822   0.375   4.486   6.514
  135OL     H2S 5823   0.552   4.518   6.504
  135OL     C13 5824   0.452   4.494   6.310
  135OL     H3R 5825   0.360   4.530   6.260
  135OL     H3S 5826   0.451   4.382   6.309
  135OL     C14 5827   0.577   4.541   6.236
  135OL     H4R 5828   0.666   4.517   6.298
  135OL     H4S 5829   0.571   4.652   6.224
  135OL     C15 5830   0.600   4.476   6.099
  135OL     H5R 5831   0.518   4.499   6.028
  135OL     H5S 5832   0.604   4.365   6.111
  135OL     C16 5833   0.733   4.521   6.039
  135OL     H6R 5834   0.746   4.471   5.940
  135OL     H6S 5835   0.817   4.489   6.105
  135OL     C17 5836   0.748   4.672   6.018
  135OL     H7R 5837   0.753   4.725   6.115
  135OL     H7S 5838   0.661   4.713   5.962
  135OL     C18 5839   0.878   4.692   5.939
  135OL     H8R 5840   0.879   4.621   5.853
  135OL     H8S 5841   0.962   4.665   6.007
  135OL     C19 5842   0.901   4.829   5.888
  135OL     H9R 5843   0.967   4.882   5.957
  135OL    C110 5844   0.877   4.879   5.765
  135OL    H10R 5845   0.885   4.987   5.749
  135OL    C111 5846   0.821   4.806   5.647
  135OL    H11R 5847   0.743   4.735   5.682
  135OL    H11S 5848   0.902   4.748   5.598
  135OL    C112 5849   0.757   4.902   5.543
  135OL    H12R 5850   0.694   4.976   5.596
  135OL    H12S 5851   0.689   4.842   5.479
  135OL    C113 5852   0.855   4.973   5.447
  135OL    H13R 5853   0.925   5.037   5.504
  135OL    H13S 5854   0.795   5.039   5.381
  135OL    C114 5855   0.939   4.882   5.356
  135OL    H14R 5856   1.016   4.832   5.419
  135OL    H14S 5857   0.993   4.946   5.283
  135OL    C115 5858   0.862   4.774   5.279
  135OL    H15R 5859   0.785   4.818   5.212
  135OL    H15S 5860   0.807   4.710   5.353
  135OL    C116 5861   0.955   4.683   5.196
  135OL    H16R 5862   1.061   4.701   5.224
  135OL    H16S 5863   0.943   4.708   5.088
  135OL    C117 5864   0.926   4.534   5.215
  135OL    H17R 5865   0.981   4.476   5.137
  135OL    H17S 5866   0.817   4.519   5.196
  135OL    C118 5867   0.962   4.479   5.353
  135OL    H18R 5868   0.971   4.368   5.350
  135OL    H18S 5869   0.885   4.506   5.428
  135OL    H18T 5870   1.059   4.521   5.386
  136PA    C116 5871   0.159   0.838   4.942
  136PA    H16R 5872   0.133   0.941   4.917
  136PA    H16S 5873   0.077   0.785   4.923
  136PA    H16T 5874   0.168   0.781   4.855
  136PA    C115 5875   0.203   0.774   5.065
  136PA    H15R 5876   0.175   0.664   5.063
  136PA    H15S 5877   0.313   0.779   5.064
  136PA    C114 5878   0.135   0.848   5.175
  136PA    H14R 5879   0.030   0.829   5.189
  136PA    H14S 5880   0.177   0.811   5.269
  136PA    C113 5881   0.093   0.991   5.143
  136PA    H13R 5882   0.182   1.043   5.103
  136PA    H13S 5883   0.011   0.997   5.066
  136PA    C112 5884   0.029   1.053   5.264
  136PA    H12R 5885   0.029   1.163   5.248
  136PA    H12S 5886  -0.077   1.019   5.276
  136PA    C111 5887   0.108   1.014   5.388
  136PA    H11R 5888   0.086   0.909   5.419
  136PA    H11S 5889   0.216   1.020   5.362
  136PA    C110 5890   0.075   1.104   5.504
  136PA    H10R 5891   0.084   1.210   5.472
  136PA    H10S 5892  -0.030   1.085   5.535
  136PA     C19 5893   0.173   1.078   5.618
  136PA     H9R 5894   0.183   0.968   5.634
  136PA     H9S 5895   0.272   1.117   5.586
  136PA     C18 5896   0.130   1.141   5.750
  136PA     H8R 5897   0.218   1.138   5.817
  136PA     H8S 5898   0.103   1.246   5.733
  136PA     C17 5899   0.015   1.063   5.814
  136PA     H7R 5900  -0.079   1.072   5.755
  136PA     H7S 5901   0.048   0.957   5.809
  136PA     C16 5902  -0.008   1.090   5.963
  136PA     H6R 5903  -0.010   1.199   5.983
  136PA     H6S 5904  -0.106   1.047   5.994
  136PA     C15 5905   0.101   1.018   6.043
  136PA     H5R 5906   0.099   0.911   6.013
  136PA     H5S 5907   0.200   1.059   6.015
  136PA     C14 5908   0.083   1.020   6.194
  136PA     H4R 5909  -0.023   1.002   6.222
  136PA     H4S 5910   0.149   0.945   6.242
  136PA     C13 5911   0.123   1.154   6.249
  136PA     H3R 5912   0.230   1.173   6.222
  136PA     H3S 5913   0.056   1.227   6.199
  136PA     C12 5914   0.112   1.160   6.401
  136PA     H2R 5915   0.148   1.067   6.448
  136PA     H2S 5916   0.177   1.238   6.443
  137PC     C11 5917  -0.031   1.183   6.443
  137PC     O12 5918  -0.120   1.239   6.381
  137PC     O11 5919  -0.045   1.121   6.557
  137PC      C1 5920  -0.166   1.045   6.567
  137PC      HR 5921  -0.221   1.088   6.646
  137PC      HS 5922  -0.235   1.050   6.479
  137PC      C2 5923  -0.140   0.904   6.610
  137PC      HX 5924  -0.239   0.856   6.633
  137PC      C3 5925  -0.055   0.891   6.738
  137PC      HA 5926   0.026   0.968   6.732
  137PC      HB 5927  -0.114   0.914   6.829
  137PC     O31 5928  -0.003   0.759   6.747
  137PC     P31 5929   0.119   0.742   6.845
  137PC     O32 5930   0.076   0.838   6.967
  137PC     C31 5931   0.167   0.836   7.078
  137PC     H1A 5932   0.192   0.732   7.100
  137PC     H1B 5933   0.263   0.886   7.050
  137PC     C32 5934   0.112   0.913   7.202
  137PC     H2A 5935   0.191   0.919   7.277
  137PC     H2B 5936   0.103   1.014   7.165
  137PC     N31 5937  -0.018   0.873   7.273
  137PC     C33 5938  -0.036   0.950   7.399
  137PC     H3A 5939   0.049   0.931   7.464
  137PC     H3B 5940  -0.047   1.056   7.380
  137PC     H3C 5941  -0.125   0.915   7.453
  137PC     C34 5942  -0.145   0.879   7.193
  137PC     H4A 5943  -0.230   0.828   7.240
  137PC     H4B 5944  -0.180   0.982   7.187
  137PC     H4C 5945  -0.134   0.842   7.091
  137PC     C35 5946  -0.011   0.736   7.319
  137PC     H5A 5947   0.030   0.678   7.236
  137PC     H5B 5948  -0.113   0.700   7.331
  137PC     H5C 5949   0.044   0.720   7.410
  137PC     O33 5950   0.122   0.606   6.903
  137PC     O34 5951   0.243   0.793   6.783
  137PC     O21 5952  -0.073   0.847   6.501
  137PC     C21 5953  -0.128   0.744   6.447
  137PC     O22 5954  -0.238   0.697   6.469
  138OL     C12 5955  -0.034   0.701   6.338
  138OL     H2R 5956  -0.029   0.783   6.263
  138OL     H2S 5957  -0.077   0.612   6.290
  138OL     C13 5958   0.104   0.672   6.400
  138OL     H3R 5959   0.090   0.607   6.490
  138OL     H3S 5960   0.153   0.765   6.437
  138OL     C14 5961   0.196   0.600   6.303
  138OL     H4R 5962   0.138   0.518   6.252
  138OL     H4S 5963   0.279   0.553   6.360
  138OL     C15 5964   0.255   0.693   6.197
  138OL     H5R 5965   0.316   0.772   6.247
  138OL     H5S 5966   0.174   0.744   6.142
  138OL     C16 5967   0.344   0.619   6.098
  138OL     H6R 5968   0.292   0.529   6.059
  138OL     H6S 5969   0.430   0.582   6.159
  138OL     C17 5970   0.393   0.709   5.982
  138OL     H7R 5971   0.465   0.661   5.917
  138OL     H7S 5972   0.448   0.796   6.023
  138OL     C18 5973   0.300   0.737   5.865
  138OL     H8R 5974   0.361   0.791   5.790
  138OL     H8S 5975   0.222   0.806   5.901
  138OL     C19 5976   0.245   0.613   5.799
  138OL     H9R 5977   0.316   0.550   5.743
  138OL    C110 5978   0.120   0.571   5.815
  138OL    H10R 5979   0.086   0.480   5.761
  138OL    C111 5980   0.016   0.640   5.902
  138OL    H11R 5981   0.060   0.696   5.986
  138OL    H11S 5982  -0.047   0.560   5.946
  138OL    C112 5983  -0.080   0.737   5.835
  138OL    H12R 5984  -0.037   0.797   5.751
  138OL    H12S 5985  -0.137   0.802   5.905
  138OL    C113 5986  -0.179   0.646   5.777
  138OL    H13R 5987  -0.233   0.593   5.857
  138OL    H13S 5988  -0.111   0.577   5.722
  138OL    C114 5989  -0.271   0.720   5.690
  138OL    H14R 5990  -0.306   0.805   5.751
  138OL    H14S 5991  -0.367   0.673   5.669
  138OL    C115 5992  -0.207   0.750   5.555
  138OL    H15R 5993  -0.156   0.850   5.554
  138OL    H15S 5994  -0.299   0.758   5.505
  138OL    C116 5995  -0.169   0.655   5.437
  138OL    H16R 5996  -0.080   0.597   5.464
  138OL    H16S 5997  -0.123   0.743   5.387
  138OL    C117 5998  -0.273   0.567   5.338
  138OL    H17R 5999  -0.322   0.475   5.365
  138OL    H17S 6000  -0.215   0.496   5.278
  138OL    C118 6001  -0.402   0.605   5.275
  138OL    H18R 6002  -0.424   0.678   5.198
  138OL    H18S 6003  -0.478   0.614   5.355
  138OL    H18T 6004  -0.423   0.519   5.206
  139PA    C116 6005   0.104   5.093   5.279
  139PA    H16R 6006   0.135   5.127   5.179
  139PA    H16S 6007   0.015   5.107   5.218
  139PA    H16T 6008   0.009   5.103   5.328
  139PA    C115 6009   0.138   5.184   5.398
  139PA    H15R 6010   0.248   5.185   5.402
  139PA    H15S 6011   0.100   5.287   5.382
  139PA    C114 6012   0.073   5.180   5.536
  139PA    H14R 6013  -0.034   5.208   5.550
  139PA    H14S 6014   0.090   5.083   5.582
  139PA    C113 6015   0.155   5.285   5.607
  139PA    H13R 6016   0.260   5.253   5.589
  139PA    H13S 6017   0.139   5.384   5.559
  139PA    C112 6018   0.128   5.286   5.754
  139PA    H12R 6019   0.019   5.275   5.772
  139PA    H12S 6020   0.180   5.197   5.795
  139PA    C111 6021   0.179   5.415   5.818
  139PA    H11R 6022   0.113   5.500   5.789
  139PA    H11S 6023   0.173   5.399   5.928
  139PA    C110 6024   0.323   5.451   5.779
  139PA    H10R 6025   0.380   5.356   5.784
  139PA    H10S 6026   0.330   5.487   5.674
  139PA     C19 6027   0.395   5.547   5.876
  139PA     H9R 6028   0.410   5.489   5.970
  139PA     H9S 6029   0.496   5.570   5.833
  139PA     C18 6030   0.332   5.681   5.913
  139PA     H8R 6031   0.355   5.752   5.830
  139PA     H8S 6032   0.221   5.673   5.921
  139PA     C17 6033   0.391   5.741   6.043
  139PA     H7R 6034   0.502   5.741   6.032
  139PA     H7S 6035   0.358   5.847   6.051
  139PA     C16 6036   0.359   5.671   6.176
  139PA     H6R 6037   0.416   5.576   6.179
  139PA     H6S 6038   0.395   5.736   6.259
  139PA     C15 6039   0.211   5.642   6.198
  139PA     H5R 6040   0.153   5.737   6.203
  139PA     H5S 6041   0.172   5.581   6.113
  139PA     C14 6042   0.182   5.562   6.324
  139PA     H4R 6043   0.238   5.465   6.321
  139PA     H4S 6044   0.212   5.616   6.416
  139PA     C13 6045   0.032   5.533   6.329
  139PA     H3R 6046  -0.022   5.631   6.324
  139PA     H3S 6047   0.006   5.475   6.237
  139PA     C12 6048  -0.009   5.460   6.456
  139PA     H2R 6049   0.036   5.509   6.545
  139PA     H2S 6050  -0.119   5.456   6.469
  140PC     C11 6051   0.046   5.320   6.447
  140PC     O12 6052   0.083   5.268   6.343
  140PC     O11 6053   0.051   5.267   6.566
  140PC      C1 6054   0.138   5.153   6.580
  140PC      HR 6055   0.093   5.061   6.621
  140PC      HS 6056   0.178   5.113   6.485
  140PC      C2 6057   0.236   5.179   6.687
  140PC      HX 6058   0.294   5.089   6.692
  140PC      C3 6059   0.170   5.211   6.818
  140PC      HA 6060   0.107   5.304   6.813
  140PC      HB 6061   0.113   5.118   6.807
  140PC     O31 6062   0.235   5.184   6.939
  140PC     P31 6063   0.231   5.280   7.064
  140PC     O32 6064   0.239   5.422   6.991
  140PC     C31 6065   0.362   5.463   6.930
  140PC     H1A 6066   0.451   5.404   6.963
  140PC     H1B 6067   0.353   5.446   6.820
  140PC     C32 6068   0.391   5.614   6.950
  140PC     H2A 6069   0.494   5.631   6.921
  140PC     H2B 6070   0.327   5.666   6.879
  140PC     N31 6071   0.373   5.682   7.085
  140PC     C33 6072   0.390   5.830   7.063
  140PC     H3A 6073   0.332   5.864   6.977
  140PC     H3B 6074   0.351   5.888   7.147
  140PC     H3C 6075   0.495   5.855   7.050
  140PC     C34 6076   0.233   5.654   7.133
  140PC     H4A 6077   0.219   5.546   7.145
  140PC     H4B 6078   0.212   5.698   7.228
  140PC     H4C 6079   0.157   5.688   7.064
  140PC     C35 6080   0.473   5.621   7.181
  140PC     H5A 6081   0.575   5.650   7.157
  140PC     H5B 6082   0.465   5.512   7.176
  140PC     H5C 6083   0.457   5.646   7.285
  140PC     O33 6084   0.107   5.273   7.143
  140PC     O34 6085   0.355   5.262   7.141
  140PC     O21 6086   0.311   5.283   6.650
  140PC     C21 6087   0.382   5.253   6.552
  140PC     O22 6088   0.386   5.154   6.480
  141OL     C12 6089   0.465   5.365   6.556
  141OL     H2R 6090   0.510   5.381   6.657
  141OL     H2S 6091   0.406   5.455   6.525
  141OL     C13 6092   0.560   5.314   6.460
  141OL     H3R 6093   0.535   5.255   6.367
  141OL     H3S 6094   0.648   5.268   6.513
  141OL     C14 6095   0.587   5.436   6.394
  141OL     H4R 6096   0.605   5.507   6.480
  141OL     H4S 6097   0.503   5.481   6.337
  141OL     C15 6098   0.711   5.378   6.329
  141OL     H5R 6099   0.788   5.359   6.402
  141OL     H5S 6100   0.685   5.475   6.299
  141OL     C16 6101   0.779   5.357   6.196
  141OL     H6R 6102   0.792   5.257   6.218
  141OL     H6S 6103   0.890   5.365   6.192
  141OL     C17 6104   0.707   5.425   6.081
  141OL     H7R 6105   0.773   5.504   6.037
  141OL     H7S 6106   0.619   5.478   6.121
  141OL     C18 6107   0.648   5.343   5.978
  141OL     H8R 6108   0.584   5.406   5.915
  141OL     H8S 6109   0.593   5.257   6.015
  141OL     C19 6110   0.765   5.301   5.908
  141OL     H9R 6111   0.865   5.321   5.954
  141OL    C110 6112   0.748   5.277   5.781
  141OL    H10R 6113   0.809   5.205   5.731
  141OL    C111 6114   0.643   5.283   5.687
  141OL    H11R 6115   0.547   5.285   5.737
  141OL    H11S 6116   0.650   5.187   5.632
  141OL    C112 6117   0.690   5.390   5.591
  141OL    H12R 6118   0.783   5.367   5.534
  141OL    H12S 6119   0.708   5.492   5.632
  141OL    C113 6120   0.597   5.378   5.479
  141OL    H13R 6121   0.597   5.473   5.428
  141OL    H13S 6122   0.496   5.368   5.522
  141OL    C114 6123   0.637   5.266   5.382
  141OL    H14R 6124   0.620   5.166   5.425
  141OL    H14S 6125   0.741   5.267   5.343
  141OL    C115 6126   0.557   5.293   5.260
  141OL    H15R 6127   0.458   5.304   5.308
  141OL    H15S 6128   0.551   5.204   5.198
  141OL    C116 6129   0.622   5.415   5.186
  141OL    H16R 6130   0.728   5.397   5.172
  141OL    H16S 6131   0.603   5.507   5.246
  141OL    C117 6132   0.577   5.451   5.046
  141OL    H17R 6133   0.574   5.352   4.993
  141OL    H17S 6134   0.615   5.528   4.978
  141OL    C118 6135   0.458   5.512   5.102
  141OL    H18R 6136   0.423   5.406   5.102
  141OL    H18S 6137   0.361   5.522   5.058
  141OL    H18T 6138   0.425   5.605   5.053
  142PA    C116 6139   2.769   2.550   5.034
  142PA    H16R 6140   2.660   2.531   5.039
  142PA    H16S 6141   2.788   2.650   5.079
  142PA    H16T 6142   2.815   2.470   5.093
  142PA    C115 6143   2.831   2.551   4.894
  142PA    H15R 6144   2.848   2.447   4.862
  142PA    H15S 6145   2.747   2.580   4.830
  142PA    C114 6146   2.961   2.637   4.875
  142PA    H14R 6147   2.962   2.694   4.780
  142PA    H14S 6148   2.978   2.712   4.955
  142PA    C113 6149   3.084   2.549   4.870
  142PA    H13R 6150   3.180   2.603   4.890
  142PA    H13S 6151   3.077   2.468   4.947
  142PA    C112 6152   3.090   2.483   4.736
  142PA    H12R 6153   2.993   2.441   4.702
  142PA    H12S 6154   3.134   2.548   4.656
  142PA    C111 6155   3.171   2.363   4.756
  142PA    H11R 6156   3.270   2.385   4.801
  142PA    H11S 6157   3.123   2.301   4.836
  142PA    C110 6158   3.177   2.294   4.622
  142PA    H10R 6159   3.167   2.360   4.535
  142PA    H10S 6160   3.281   2.261   4.623
  142PA     C19 6161   3.081   2.180   4.604
  142PA     H9R 6162   3.070   2.137   4.703
  142PA     H9S 6163   2.974   2.207   4.602
  142PA     C18 6164   3.118   2.083   4.486
  142PA     H8R 6165   3.087   1.978   4.508
  142PA     H8S 6166   3.043   2.117   4.415
  142PA     C17 6167   3.251   2.076   4.403
  142PA     H7R 6168   3.273   2.173   4.357
  142PA     H7S 6169   3.357   2.064   4.424
  142PA     C16 6170   3.259   1.945   4.332
  142PA     H6R 6171   3.361   1.903   4.310
  142PA     H6S 6172   3.204   1.856   4.373
  142PA     C15 6173   3.189   2.008   4.221
  142PA     H5R 6174   3.090   2.034   4.255
  142PA     H5S 6175   3.251   2.093   4.180
  142PA     C14 6176   3.151   1.911   4.126
  142PA     H4R 6177   3.256   1.904   4.135
  142PA     H4S 6178   3.114   1.811   4.153
  142PA     C13 6179   3.112   1.973   3.997
  142PA     H3R 6180   3.168   2.068   3.981
  142PA     H3S 6181   3.127   1.908   3.909
  142PA     C12 6182   2.967   1.972   4.003
  142PA     H2R 6183   2.944   1.862   4.001
  142PA     H2S 6184   2.942   2.024   4.094
  143PC     C11 6185   2.923   2.045   3.883
  143PC     O12 6186   2.998   2.115   3.818
  143PC     O11 6187   2.802   1.995   3.856
  143PC      C1 6188   2.724   2.000   3.735
  143PC      HR 6189   2.765   1.958   3.642
  143PC      HS 6190   2.637   1.932   3.746
  143PC      C2 6191   2.699   2.142   3.690
  143PC      HX 6192   2.624   2.178   3.762
  143PC      C3 6193   2.651   2.149   3.546
  143PC      HA 6194   2.555   2.095   3.534
  143PC      HB 6195   2.636   2.258   3.524
  143PC     O31 6196   2.748   2.090   3.459
  143PC     P31 6197   2.731   2.140   3.312
  143PC     O32 6198   2.820   2.277   3.308
  143PC     C31 6199   2.939   2.296   3.386
  143PC     H1A 6200   2.918   2.289   3.494
  143PC     H1B 6201   3.004   2.212   3.375
  143PC     C32 6202   3.032   2.419   3.354
  143PC     H2A 6203   2.981   2.503   3.401
  143PC     H2B 6204   3.122   2.402   3.412
  143PC     N31 6205   3.074   2.471   3.214
  143PC     C33 6206   2.946   2.519   3.163
  143PC     H3A 6207   2.952   2.537   3.056
  143PC     H3B 6208   2.861   2.450   3.171
  143PC     H3C 6209   2.910   2.612   3.205
  143PC     C34 6210   3.176   2.577   3.225
  143PC     H4A 6211   3.197   2.622   3.128
  143PC     H4B 6212   3.157   2.651   3.300
  143PC     H4C 6213   3.273   2.531   3.250
  143PC     C35 6214   3.152   2.397   3.108
  143PC     H5A 6215   3.230   2.337   3.148
  143PC     H5B 6216   3.196   2.458   3.030
  143PC     H5C 6217   3.094   2.328   3.052
  143PC     O33 6218   2.793   2.036   3.229
  143PC     O34 6219   2.589   2.168   3.288
  143PC     O21 6220   2.822   2.215   3.693
  143PC     C21 6221   2.802   2.338   3.721
  143PC     O22 6222   2.693   2.391   3.729
  144OL     C12 6223   2.934   2.411   3.746
  144OL     H2R 6224   2.921   2.509   3.694
  144OL     H2S 6225   3.021   2.360   3.704
  144OL     C13 6226   2.949   2.436   3.898
  144OL     H3R 6227   2.846   2.449   3.940
  144OL     H3S 6228   3.013   2.525   3.918
  144OL     C14 6229   2.979   2.326   3.995
  144OL     H4R 6230   3.076   2.278   3.972
  144OL     H4S 6231   2.893   2.256   3.981
  144OL     C15 6232   2.970   2.374   4.139
  144OL     H5R 6233   2.882   2.435   4.155
  144OL     H5S 6234   3.059   2.438   4.159
  144OL     C16 6235   2.956   2.261   4.239
  144OL     H6R 6236   2.978   2.299   4.341
  144OL     H6S 6237   3.037   2.197   4.206
  144OL     C17 6238   2.821   2.186   4.239
  144OL     H7R 6239   2.796   2.158   4.135
  144OL     H7S 6240   2.742   2.255   4.275
  144OL     C18 6241   2.820   2.057   4.324
  144OL     H8R 6242   2.836   2.080   4.432
  144OL     H8S 6243   2.907   1.996   4.293
  144OL     C19 6244   2.698   1.972   4.301
  144OL     H9R 6245   2.645   1.994   4.208
  144OL    C110 6246   2.655   1.874   4.381
  144OL    H10R 6247   2.567   1.815   4.351
  144OL    C111 6248   2.721   1.831   4.509
  144OL    H11R 6249   2.830   1.848   4.505
  144OL    H11S 6250   2.709   1.721   4.519
  144OL    C112 6251   2.666   1.903   4.634
  144OL    H12R 6252   2.555   1.899   4.636
  144OL    H12S 6253   2.688   2.011   4.632
  144OL    C113 6254   2.722   1.848   4.766
  144OL    H13R 6255   2.719   1.737   4.769
  144OL    H13S 6256   2.665   1.890   4.852
  144OL    C114 6257   2.861   1.901   4.791
  144OL    H14R 6258   2.871   2.006   4.758
  144OL    H14S 6259   2.921   1.854   4.713
  144OL    C115 6260   2.904   1.885   4.939
  144OL    H15R 6261   3.002   1.833   4.952
  144OL    H15S 6262   2.831   1.826   4.998
  144OL    C116 6263   2.927   2.020   5.005
  144OL    H16R 6264   2.999   2.062   4.938
  144OL    H16S 6265   2.971   2.014   5.106
  144OL    C117 6266   2.822   2.127   4.985
  144OL    H17R 6267   2.755   2.100   4.901
  144OL    H17S 6268   2.874   2.221   4.956
  144OL    C118 6269   2.742   2.150   5.111
  144OL    H18R 6270   2.667   2.068   5.120
  144OL    H18S 6271   2.691   2.248   5.104
  144OL    H18T 6272   2.808   2.149   5.200
  145PA    C116 6273   3.468   2.851   5.304
  145PA    H16R 6274   3.514   2.821   5.401
  145PA    H16S 6275   3.383   2.782   5.283
  145PA    H16T 6276   3.431   2.956   5.308
  145PA    C115 6277   3.560   2.822   5.197
  145PA    H15R 6278   3.657   2.818   5.251
  145PA    H15S 6279   3.512   2.739   5.138
  145PA    C114 6280   3.611   2.918   5.106
  145PA    H14R 6281   3.609   3.000   5.183
  145PA    H14S 6282   3.700   2.913   5.044
  145PA    C113 6283   3.504   2.932   5.014
  145PA    H13R 6284   3.433   2.956   5.096
  145PA    H13S 6285   3.536   3.025   4.976
  145PA    C112 6286   3.472   2.896   4.867
  145PA    H12R 6287   3.479   2.793   4.846
  145PA    H12S 6288   3.366   2.914   4.842
  145PA    C111 6289   3.496   2.994   4.751
  145PA    H11R 6290   3.465   3.102   4.752
  145PA    H11S 6291   3.605   2.992   4.741
  145PA    C110 6292   3.411   2.938   4.637
  145PA    H10R 6293   3.388   2.830   4.653
  145PA    H10S 6294   3.312   2.988   4.624
  145PA     C19 6295   3.503   2.958   4.524
  145PA     H9R 6296   3.516   3.068   4.511
  145PA     H9S 6297   3.599   2.912   4.557
  145PA     C18 6298   3.460   2.890   4.398
  145PA     H8R 6299   3.447   2.786   4.424
  145PA     H8S 6300   3.361   2.922   4.363
  145PA     C17 6301   3.574   2.904   4.300
  145PA     H7R 6302   3.669   2.896   4.358
  145PA     H7S 6303   3.572   2.820   4.228
  145PA     C16 6304   3.570   3.042   4.234
  145PA     H6R 6305   3.566   3.119   4.314
  145PA     H6S 6306   3.663   3.061   4.175
  145PA     C15 6307   3.449   3.065   4.144
  145PA     H5R 6308   3.356   3.024   4.190
  145PA     H5S 6309   3.433   3.175   4.134
  145PA     C14 6310   3.466   3.004   4.005
  145PA     H4R 6311   3.560   3.039   3.958
  145PA     H4S 6312   3.471   2.894   4.016
  145PA     C13 6313   3.347   3.043   3.917
  145PA     H3R 6314   3.257   3.034   3.982
  145PA     H3S 6315   3.353   3.149   3.886
  145PA     C12 6316   3.336   2.952   3.793
  145PA     H2R 6317   3.401   2.989   3.712
  145PA     H2S 6318   3.362   2.848   3.821
  146PC     C11 6319   3.195   2.947   3.745
  146PC     O12 6320   3.101   2.930   3.819
  146PC     O11 6321   3.191   2.955   3.611
  146PC      C1 6322   3.057   2.971   3.559
  146PC      HR 6323   3.030   2.876   3.508
  146PC      HS 6324   2.986   2.961   3.636
  146PC      C2 6325   3.042   3.095   3.461
  146PC      HX 6326   2.948   3.115   3.405
  146PC      C3 6327   3.119   3.040   3.349
  146PC      HA 6328   3.222   3.029   3.385
  146PC      HB 6329   3.068   2.940   3.336
  146PC     O31 6330   3.106   3.097   3.221
  146PC     P31 6331   3.193   3.222   3.181
  146PC     O32 6332   3.337   3.181   3.238
  146PC     C31 6333   3.427   3.090   3.177
  146PC     H1A 6334   3.379   3.052   3.084
  146PC     H1B 6335   3.516   3.139   3.134
  146PC     C32 6336   3.464   2.975   3.279
  146PC     H2A 6337   3.374   2.944   3.333
  146PC     H2B 6338   3.496   2.884   3.232
  146PC     N31 6339   3.560   2.981   3.386
  146PC     C33 6340   3.691   2.982   3.319
  146PC     H3A 6341   3.700   2.891   3.261
  146PC     H3B 6342   3.703   3.068   3.254
  146PC     H3C 6343   3.768   2.978   3.394
  146PC     C34 6344   3.518   3.101   3.458
  146PC     H4A 6345   3.500   3.180   3.384
  146PC     H4B 6346   3.421   3.084   3.503
  146PC     H4C 6347   3.589   3.132   3.532
  146PC     C35 6348   3.545   2.854   3.464
  146PC     H5A 6349   3.447   2.846   3.510
  146PC     H5B 6350   3.619   2.848   3.543
  146PC     H5C 6351   3.555   2.765   3.401
  146PC     O33 6352   3.192   3.222   3.033
  146PC     O34 6353   3.145   3.342   3.249
  146PC     O21 6354   3.088   3.217   3.513
  146PC     C21 6355   2.991   3.306   3.536
  146PC     O22 6356   2.871   3.293   3.517
  147OL     C12 6357   3.063   3.427   3.589
  147OL     H2R 6358   2.991   3.507   3.609
  147OL     H2S 6359   3.129   3.456   3.504
  147OL     C13 6360   3.155   3.390   3.709
  147OL     H3R 6361   3.239   3.464   3.704
  147OL     H3S 6362   3.202   3.290   3.698
  147OL     C14 6363   3.100   3.405   3.852
  147OL     H4R 6364   3.078   3.512   3.871
  147OL     H4S 6365   3.184   3.375   3.919
  147OL     C15 6366   2.978   3.319   3.891
  147OL     H5R 6367   3.007   3.212   3.889
  147OL     H5S 6368   2.897   3.333   3.817
  147OL     C16 6369   2.920   3.354   4.030
  147OL     H6R 6370   2.837   3.283   4.052
  147OL     H6S 6371   2.876   3.456   4.024
  147OL     C17 6372   3.019   3.353   4.148
  147OL     H7R 6373   2.961   3.362   4.242
  147OL     H7S 6374   3.083   3.444   4.140
  147OL     C18 6375   3.115   3.233   4.157
  147OL     H8R 6376   3.173   3.248   4.250
  147OL     H8S 6377   3.189   3.238   4.075
  147OL     C19 6378   3.046   3.099   4.151
  147OL     H9R 6379   3.007   3.068   4.053
  147OL    C110 6380   3.044   3.012   4.252
  147OL    H10R 6381   2.987   2.918   4.240
  147OL    C111 6382   3.110   3.037   4.387
  147OL    H11R 6383   3.186   3.116   4.391
  147OL    H11S 6384   3.155   2.941   4.422
  147OL    C112 6385   3.010   3.080   4.491
  147OL    H12R 6386   2.973   2.977   4.492
  147OL    H12S 6387   2.927   3.147   4.460
  147OL    C113 6388   3.062   3.109   4.634
  147OL    H13R 6389   3.128   3.195   4.640
  147OL    H13S 6390   3.112   3.014   4.669
  147OL    C114 6391   2.947   3.131   4.731
  147OL    H14R 6392   2.920   3.041   4.683
  147OL    H14S 6393   2.864   3.203   4.716
  147OL    C115 6394   2.957   3.095   4.877
  147OL    H15R 6395   3.019   3.007   4.899
  147OL    H15S 6396   2.868   3.085   4.945
  147OL    C116 6397   2.997   3.218   4.923
  147OL    H16R 6398   2.919   3.298   4.914
  147OL    H16S 6399   3.085   3.251   4.861
  147OL    C117 6400   3.030   3.182   5.065
  147OL    H17R 6401   3.058   3.081   5.088
  147OL    H17S 6402   2.946   3.209   5.127
  147OL    C118 6403   3.139   3.266   5.094
  147OL    H18R 6404   3.211   3.298   5.016
  147OL    H18S 6405   3.164   3.296   5.197
  147OL    H18T 6406   3.085   3.339   5.039
  148PA    C116 6407   3.242   1.564   5.110
  148PA    H16R 6408   3.136   1.529   5.111
  148PA    H16S 6409   3.277   1.659   5.148
  148PA    H16T 6410   3.276   1.511   5.198
  148PA    C115 6411   3.300   1.547   4.972
  148PA    H15R 6412   3.406   1.581   4.976
  148PA    H15S 6413   3.298   1.444   4.929
  148PA    C114 6414   3.213   1.616   4.874
  148PA    H14R 6415   3.206   1.723   4.903
  148PA    H14S 6416   3.264   1.597   4.778
  148PA    C113 6417   3.079   1.547   4.847
  148PA    H13R 6418   3.094   1.447   4.804
  148PA    H13S 6419   3.021   1.538   4.941
  148PA    C112 6420   2.998   1.633   4.755
  148PA    H12R 6421   2.889   1.614   4.765
  148PA    H12S 6422   3.028   1.730   4.797
  148PA    C111 6423   3.040   1.648   4.609
  148PA    H11R 6424   2.997   1.740   4.564
  148PA    H11S 6425   3.150   1.661   4.602
  148PA    C110 6426   2.984   1.530   4.534
  148PA    H10R 6427   3.020   1.437   4.583
  148PA    H10S 6428   2.873   1.533   4.544
  148PA     C19 6429   3.022   1.531   4.387
  148PA     H9R 6430   3.020   1.636   4.349
  148PA     H9S 6431   3.125   1.494   4.380
  148PA     C18 6432   2.932   1.442   4.303
  148PA     H8R 6433   2.929   1.341   4.350
  148PA     H8S 6434   2.830   1.484   4.303
  148PA     C17 6435   2.980   1.426   4.158
  148PA     H7R 6436   3.085   1.389   4.158
  148PA     H7S 6437   2.917   1.347   4.111
  148PA     C16 6438   2.970   1.553   4.070
  148PA     H6R 6439   2.863   1.582   4.062
  148PA     H6S 6440   3.023   1.638   4.118
  148PA     C15 6441   3.033   1.523   3.933
  148PA     H5R 6442   3.141   1.501   3.947
  148PA     H5S 6443   2.986   1.430   3.895
  148PA     C14 6444   3.020   1.626   3.820
  148PA     H4R 6445   3.086   1.714   3.833
  148PA     H4S 6446   3.059   1.576   3.729
  148PA     C13 6447   2.878   1.673   3.787
  148PA     H3R 6448   2.809   1.588   3.804
  148PA     H3S 6449   2.847   1.752   3.859
  148PA     C12 6450   2.865   1.711   3.636
  148PA     H2R 6451   2.901   1.631   3.569
  148PA     H2S 6452   2.761   1.743   3.620
  149PC     C11 6453   2.948   1.829   3.606
  149PC     O12 6454   2.977   1.895   3.700
  149PC     O11 6455   2.980   1.863   3.485
  149PC      C1 6456   3.075   1.970   3.513
  149PC      HR 6457   3.057   2.033   3.428
  149PC      HS 6458   3.064   2.054   3.588
  149PC      C2 6459   3.211   1.902   3.538
  149PC      HX 6460   3.297   1.956   3.527
  149PC      C3 6461   3.223   1.809   3.413
  149PC      HA 6462   3.132   1.766   3.365
  149PC      HB 6463   3.251   1.864   3.324
  149PC     O31 6464   3.339   1.732   3.430
  149PC     P31 6465   3.305   1.583   3.431
  149PC     O32 6466   3.235   1.577   3.289
  149PC     C31 6467   3.310   1.603   3.171
  149PC     H1A 6468   3.255   1.672   3.104
  149PC     H1B 6469   3.410   1.652   3.190
  149PC     C32 6470   3.338   1.468   3.105
  149PC     H2A 6471   3.365   1.488   3.002
  149PC     H2B 6472   3.426   1.430   3.157
  149PC     N31 6473   3.232   1.358   3.109
  149PC     C33 6474   3.226   1.295   3.245
  149PC     H3A 6475   3.163   1.207   3.246
  149PC     H3B 6476   3.325   1.269   3.281
  149PC     H3C 6477   3.188   1.366   3.318
  149PC     C34 6478   3.093   1.406   3.082
  149PC     H4A 6479   3.030   1.320   3.068
  149PC     H4B 6480   3.054   1.461   3.167
  149PC     H4C 6481   3.086   1.471   2.996
  149PC     C35 6482   3.277   1.255   3.012
  149PC     H5A 6483   3.265   1.287   2.910
  149PC     H5B 6484   3.224   1.160   3.022
  149PC     H5C 6485   3.382   1.230   3.030
  149PC     O33 6486   3.430   1.506   3.433
  149PC     O34 6487   3.202   1.560   3.533
  149PC     O21 6488   3.223   1.852   3.672
  149PC     C21 6489   3.297   1.925   3.756
  149PC     O22 6490   3.291   2.044   3.778
  150OL     C12 6491   3.393   1.832   3.829
  150OL     H2R 6492   3.478   1.888   3.875
  150OL     H2S 6493   3.426   1.750   3.766
  150OL     C13 6494   3.332   1.807   3.953
  150OL     H3R 6495   3.234   1.756   3.944
  150OL     H3S 6496   3.338   1.916   3.985
  150OL     C14 6497   3.394   1.746   4.068
  150OL     H4R 6498   3.309   1.728   4.141
  150OL     H4S 6499   3.469   1.804   4.126
  150OL     C15 6500   3.429   1.617   4.024
  150OL     H5R 6501   3.507   1.626   3.949
  150OL     H5S 6502   3.336   1.569   3.983
  150OL     C16 6503   3.470   1.573   4.154
  150OL     H6R 6504   3.426   1.631   4.241
  150OL     H6S 6505   3.580   1.586   4.164
  150OL     C17 6506   3.410   1.439   4.168
  150OL     H7R 6507   3.487   1.386   4.107
  150OL     H7S 6508   3.315   1.418   4.117
  150OL     C18 6509   3.391   1.412   4.316
  150OL     H8R 6510   3.372   1.304   4.330
  150OL     H8S 6511   3.308   1.465   4.361
  150OL     C19 6512   3.518   1.462   4.377
  150OL     H9R 6513   3.610   1.423   4.340
  150OL    C110 6514   3.538   1.539   4.477
  150OL    H10R 6515   3.641   1.547   4.516
  150OL    C111 6516   3.431   1.596   4.555
  150OL    H11R 6517   3.369   1.519   4.605
  150OL    H11S 6518   3.372   1.656   4.483
  150OL    C112 6519   3.512   1.672   4.656
  150OL    H12R 6520   3.608   1.705   4.615
  150OL    H12S 6521   3.548   1.614   4.743
  150OL    C113 6522   3.429   1.788   4.700
  150OL    H13R 6523   3.471   1.826   4.794
  150OL    H13S 6524   3.331   1.752   4.726
  150OL    C114 6525   3.390   1.890   4.593
  150OL    H14R 6526   3.311   1.839   4.536
  150OL    H14S 6527   3.459   1.924   4.513
  150OL    C115 6528   3.345   2.018   4.654
  150OL    H15R 6529   3.361   2.105   4.591
  150OL    H15S 6530   3.405   2.096   4.702
  150OL    C116 6531   3.235   1.986   4.745
  150OL    H16R 6532   3.228   1.888   4.789
  150OL    H16S 6533   3.144   1.970   4.690
  150OL    C117 6534   3.249   2.083   4.854
  150OL    H17R 6535   3.167   2.093   4.920
  150OL    H17S 6536   3.284   2.184   4.827
  150OL    C118 6537   3.361   2.040   4.931
  150OL    H18R 6538   3.370   2.111   5.011
  150OL    H18S 6539   3.447   2.064   4.880
  150OL    H18T 6540   3.372   1.932   4.946
  151PA    C116 6541   3.607   2.129   5.145
  151PA    H16R 6542   3.510   2.096   5.173
  151PA    H16S 6543   3.663   2.136   5.240
  151PA    H16T 6544   3.628   2.041   5.086
  151PA    C115 6545   3.632   2.242   5.052
  151PA    H15R 6546   3.568   2.324   5.091
  151PA    H15S 6547   3.740   2.263   5.063
  151PA    C114 6548   3.615   2.219   4.902
  151PA    H14R 6549   3.507   2.239   4.883
  151PA    H14S 6550   3.665   2.297   4.842
  151PA    C113 6551   3.674   2.087   4.851
  151PA    H13R 6552   3.783   2.084   4.844
  151PA    H13S 6553   3.635   2.000   4.911
  151PA    C112 6554   3.631   2.047   4.714
  151PA    H12R 6555   3.544   1.993   4.749
  151PA    H12S 6556   3.595   2.127   4.647
  151PA    C111 6557   3.685   1.919   4.658
  151PA    H11R 6558   3.692   1.840   4.736
  151PA    H11S 6559   3.613   1.883   4.587
  151PA    C110 6560   3.772   1.921   4.539
  151PA    H10R 6561   3.861   1.957   4.592
  151PA    H10S 6562   3.781   1.816   4.500
  151PA     C19 6563   3.714   2.014   4.431
  151PA     H9R 6564   3.640   2.090   4.464
  151PA     H9S 6565   3.805   2.068   4.401
  151PA     C18 6566   3.650   1.950   4.306
  151PA     H8R 6567   3.651   1.839   4.309
  151PA     H8S 6568   3.544   1.981   4.296
  151PA     C17 6569   3.719   2.007   4.182
  151PA     H7R 6570   3.689   2.113   4.170
  151PA     H7S 6571   3.829   2.000   4.194
  151PA     C16 6572   3.673   1.933   4.057
  151PA     H6R 6573   3.687   1.828   4.090
  151PA     H6S 6574   3.565   1.953   4.048
  151PA     C15 6575   3.746   1.978   3.927
  151PA     H5R 6576   3.727   2.086   3.921
  151PA     H5S 6577   3.854   1.962   3.941
  151PA     C14 6578   3.711   1.918   3.789
  151PA     H4R 6579   3.798   1.910   3.721
  151PA     H4S 6580   3.668   1.816   3.800
  151PA     C13 6581   3.618   2.005   3.706
  151PA     H3R 6582   3.540   1.939   3.721
  151PA     H3S 6583   3.564   2.080   3.768
  151PA     C12 6584   3.576   1.962   3.563
  151PA     H2R 6585   3.660   1.956   3.496
  151PA     H2S 6586   3.519   1.864   3.557
  152PC     C11 6587   3.481   2.066   3.516
  152PC     O12 6588   3.427   2.140   3.593
  152PC     O11 6589   3.445   2.034   3.394
  152PC      C1 6590   3.324   2.085   3.335
  152PC      HR 6591   3.313   2.035   3.237
  152PC      HS 6592   3.234   2.059   3.380
  152PC      C2 6593   3.287   2.232   3.342
  152PC      HX 6594   3.189   2.247   3.299
  152PC      C3 6595   3.390   2.272   3.246
  152PC      HA 6596   3.383   2.197   3.162
  152PC      HB 6597   3.373   2.372   3.204
  152PC     O31 6598   3.511   2.260   3.313
  152PC     P31 6599   3.625   2.299   3.221
  152PC     O32 6600   3.729   2.313   3.338
  152PC     C31 6601   3.786   2.191   3.385
  152PC     H1A 6602   3.823   2.205   3.489
  152PC     H1B 6603   3.711   2.109   3.390
  152PC     C32 6604   3.898   2.146   3.289
  152PC     H2A 6605   3.951   2.064   3.336
  152PC     H2B 6606   3.847   2.106   3.201
  152PC     N31 6607   3.996   2.255   3.248
  152PC     C33 6608   4.127   2.198   3.219
  152PC     H3A 6609   4.204   2.275   3.235
  152PC     H3B 6610   4.152   2.123   3.293
  152PC     H3C 6611   4.138   2.158   3.120
  152PC     C34 6612   3.948   2.331   3.128
  152PC     H4A 6613   4.012   2.415   3.106
  152PC     H4B 6614   3.939   2.265   3.043
  152PC     H4C 6615   3.848   2.368   3.147
  152PC     C35 6616   4.008   2.353   3.361
  152PC     H5A 6617   3.909   2.390   3.385
  152PC     H5B 6618   4.075   2.435   3.340
  152PC     H5C 6619   4.044   2.302   3.450
  152PC     O33 6620   3.661   2.185   3.134
  152PC     O34 6621   3.595   2.430   3.162
  152PC     O21 6622   3.274   2.283   3.476
  152PC     C21 6623   3.322   2.403   3.500
  152PC     O22 6624   3.312   2.500   3.428
  153OL     C12 6625   3.388   2.419   3.631
  153OL     H2R 6626   3.334   2.359   3.706
  153OL     H2S 6627   3.373   2.527   3.654
  153OL     C13 6628   3.539   2.399   3.605
  153OL     H3R 6629   3.569   2.465   3.520
  153OL     H3S 6630   3.571   2.301   3.568
  153OL     C14 6631   3.626   2.435   3.725
  153OL     H4R 6632   3.588   2.530   3.768
  153OL     H4S 6633   3.729   2.450   3.684
  153OL     C15 6634   3.632   2.327   3.833
  153OL     H5R 6635   3.677   2.237   3.788
  153OL     H5S 6636   3.531   2.303   3.871
  153OL     C16 6637   3.720   2.362   3.952
  153OL     H6R 6638   3.708   2.281   4.028
  153OL     H6S 6639   3.693   2.458   4.001
  153OL     C17 6640   3.867   2.366   3.920
  153OL     H7R 6641   3.900   2.465   3.882
  153OL     H7S 6642   3.895   2.289   3.843
  153OL     C18 6643   3.939   2.333   4.049
  153OL     H8R 6644   4.037   2.329   4.010
  153OL     H8S 6645   3.924   2.229   4.087
  153OL     C19 6646   3.946   2.442   4.153
  153OL     H9R 6647   4.012   2.525   4.124
  153OL    C110 6648   3.893   2.444   4.274
  153OL    H10R 6649   3.923   2.524   4.344
  153OL    C111 6650   3.811   2.334   4.332
  153OL    H11R 6651   3.838   2.315   4.438
  153OL    H11S 6652   3.824   2.239   4.276
  153OL    C112 6653   3.664   2.376   4.320
  153OL    H12R 6654   3.600   2.295   4.360
  153OL    H12S 6655   3.635   2.393   4.214
  153OL    C113 6656   3.635   2.506   4.394
  153OL    H13R 6657   3.674   2.593   4.336
  153OL    H13S 6658   3.688   2.507   4.492
  153OL    C114 6659   3.486   2.527   4.413
  153OL    H14R 6660   3.432   2.539   4.317
  153OL    H14S 6661   3.479   2.619   4.471
  153OL    C115 6662   3.415   2.430   4.504
  153OL    H15R 6663   3.398   2.332   4.456
  153OL    H15S 6664   3.318   2.481   4.526
  153OL    C116 6665   3.484   2.414   4.637
  153OL    H16R 6666   3.592   2.390   4.626
  153OL    H16S 6667   3.447   2.331   4.700
  153OL    C117 6668   3.460   2.541   4.712
  153OL    H17R 6669   3.357   2.550   4.755
  153OL    H17S 6670   3.479   2.636   4.660
  153OL    C118 6671   3.547   2.537   4.825
  153OL    H18R 6672   3.656   2.550   4.804
  153OL    H18S 6673   3.530   2.448   4.887
  153OL    H18T 6674   3.510   2.621   4.886
  154PA    C116 6675   2.418   2.838   5.036
  154PA    H16R 6676   2.450   2.933   5.085
  154PA    H16S 6677   2.383   2.774   5.116
  154PA    H16T 6678   2.341   2.863   4.962
  154PA    C115 6679   2.525   2.761   4.966
  154PA    H15R 6680   2.607   2.738   5.034
  154PA    H15S 6681   2.501   2.660   4.929
  154PA    C114 6682   2.573   2.848   4.861
  154PA    H14R 6683   2.526   2.836   4.762
  154PA    H14S 6684   2.559   2.953   4.898
  154PA    C113 6685   2.715   2.822   4.848
  154PA    H13R 6686   2.773   2.815   4.945
  154PA    H13S 6687   2.747   2.749   4.771
  154PA    C112 6688   2.755   2.941   4.782
  154PA    H12R 6689   2.729   3.027   4.847
  154PA    H12S 6690   2.863   2.907   4.785
  154PA    C111 6691   2.703   2.982   4.645
  154PA    H11R 6692   2.596   3.004   4.641
  154PA    H11S 6693   2.741   3.083   4.618
  154PA    C110 6694   2.771   2.902   4.539
  154PA    H10R 6695   2.786   2.973   4.453
  154PA    H10S 6696   2.866   2.857   4.578
  154PA     C19 6697   2.696   2.794   4.478
  154PA     H9R 6698   2.693   2.710   4.550
  154PA     H9S 6699   2.596   2.841   4.463
  154PA     C18 6700   2.758   2.759   4.344
  154PA     H8R 6701   2.787   2.851   4.286
  154PA     H8S 6702   2.851   2.698   4.354
  154PA     C17 6703   2.644   2.689   4.274
  154PA     H7R 6704   2.607   2.612   4.344
  154PA     H7S 6705   2.565   2.767   4.262
  154PA     C16 6706   2.677   2.630   4.139
  154PA     H6R 6707   2.738   2.542   4.157
  154PA     H6S 6708   2.583   2.590   4.095
  154PA     C15 6709   2.747   2.732   4.048
  154PA     H5R 6710   2.691   2.828   4.057
  154PA     H5S 6711   2.850   2.749   4.087
  154PA     C14 6712   2.755   2.697   3.898
  154PA     H4R 6713   2.811   2.610   3.888
  154PA     H4S 6714   2.661   2.676   3.848
  154PA     C13 6715   2.848   2.784   3.817
  154PA     H3R 6716   2.950   2.769   3.862
  154PA     H3S 6717   2.855   2.747   3.712
  154PA     C12 6718   2.793   2.924   3.836
  154PA     H2R 6719   2.687   2.916   3.866
  154PA     H2S 6720   2.854   2.975   3.914
  155PC     C11 6721   2.784   3.010   3.716
  155PC     O12 6722   2.841   3.116   3.710
  155PC     O11 6723   2.720   2.943   3.619
  155PC      C1 6724   2.737   2.982   3.481
  155PC      HR 6725   2.683   3.074   3.451
  155PC      HS 6726   2.836   3.005   3.477
  155PC      C2 6727   2.754   2.872   3.372
  155PC      HX 6728   2.842   2.808   3.398
  155PC      C3 6729   2.775   2.927   3.229
  155PC      HA 6730   2.850   3.009   3.229
  155PC      HB 6731   2.810   2.846   3.160
  155PC     O31 6732   2.649   2.969   3.181
  155PC     P31 6733   2.622   3.087   3.084
  155PC     O32 6734   2.484   3.143   3.134
  155PC     C31 6735   2.379   3.055   3.166
  155PC     H1A 6736   2.281   3.108   3.157
  155PC     H1B 6737   2.375   2.965   3.100
  155PC     C32 6738   2.397   3.012   3.310
  155PC     H2A 6739   2.335   2.925   3.308
  155PC     H2B 6740   2.498   2.975   3.327
  155PC     N31 6741   2.350   3.111   3.416
  155PC     C33 6742   2.420   3.239   3.397
  155PC     H3A 6743   2.425   3.260   3.291
  155PC     H3B 6744   2.377   3.316   3.458
  155PC     H3C 6745   2.523   3.225   3.430
  155PC     C34 6746   2.201   3.120   3.417
  155PC     H4A 6747   2.168   3.205   3.476
  155PC     H4B 6748   2.162   3.131   3.317
  155PC     H4C 6749   2.157   3.030   3.460
  155PC     C35 6750   2.394   3.076   3.549
  155PC     H5A 6751   2.376   2.970   3.550
  155PC     H5B 6752   2.334   3.116   3.630
  155PC     H5C 6753   2.499   3.078   3.575
  155PC     O33 6754   2.723   3.192   3.106
  155PC     O34 6755   2.604   3.042   2.944
  155PC     O21 6756   2.634   2.801   3.374
  155PC     C21 6757   2.640   2.677   3.332
  155PC     O22 6758   2.739   2.621   3.290
  156OL     C12 6759   2.523   2.621   3.403
  156OL     H2R 6760   2.499   2.519   3.370
  156OL     H2S 6761   2.447   2.684   3.353
  156OL     C13 6762   2.550   2.647   3.559
  156OL     H3R 6763   2.557   2.756   3.579
  156OL     H3S 6764   2.641   2.595   3.594
  156OL     C14 6765   2.445   2.601   3.658
  156OL     H4R 6766   2.460   2.492   3.652
  156OL     H4S 6767   2.346   2.625   3.626
  156OL     C15 6768   2.432   2.623   3.809
  156OL     H5R 6769   2.500   2.552   3.857
  156OL     H5S 6770   2.324   2.588   3.795
  156OL     C16 6771   2.391   2.740   3.895
  156OL     H6R 6772   2.284   2.735   3.884
  156OL     H6S 6773   2.443   2.833   3.870
  156OL     C17 6774   2.384   2.763   4.041
  156OL     H7R 6775   2.491   2.761   4.062
  156OL     H7S 6776   2.328   2.678   4.087
  156OL     C18 6777   2.326   2.909   4.071
  156OL     H8R 6778   2.354   2.931   4.175
  156OL     H8S 6779   2.219   2.897   4.076
  156OL     C19 6780   2.336   3.034   3.979
  156OL     H9R 6781   2.248   3.063   3.918
  156OL    C110 6782   2.434   3.120   3.968
  156OL    H10R 6783   2.428   3.204   3.896
  156OL    C111 6784   2.553   3.101   4.053
  156OL    H11R 6785   2.641   3.080   3.991
  156OL    H11S 6786   2.541   3.016   4.124
  156OL    C112 6787   2.566   3.226   4.140
  156OL    H12R 6788   2.571   3.317   4.076
  156OL    H12S 6789   2.661   3.216   4.196
  156OL    C113 6790   2.450   3.240   4.240
  156OL    H13R 6791   2.353   3.219   4.191
  156OL    H13S 6792   2.447   3.345   4.275
  156OL    C114 6793   2.462   3.147   4.361
  156OL    H14R 6794   2.536   3.191   4.432
  156OL    H14S 6795   2.495   3.045   4.333
  156OL    C115 6796   2.328   3.132   4.432
  156OL    H15R 6797   2.244   3.109   4.363
  156OL    H15S 6798   2.313   3.229   4.481
  156OL    C116 6799   2.332   3.035   4.547
  156OL    H16R 6800   2.407   3.076   4.619
  156OL    H16S 6801   2.366   2.937   4.508
  156OL    C117 6802   2.201   3.015   4.622
  156OL    H17R 6803   2.133   2.953   4.560
  156OL    H17S 6804   2.143   3.108   4.641
  156OL    C118 6805   2.242   2.953   4.754
  156OL    H18R 6806   2.258   3.031   4.831
  156OL    H18S 6807   2.333   2.892   4.739
  156OL    H18T 6808   2.175   2.875   4.793
  157PA    C116 6809   2.509   1.660   4.921
  157PA    H16R 6810   2.591   1.593   4.888
  157PA    H16S 6811   2.485   1.640   5.027
  157PA    H16T 6812   2.544   1.764   4.919
  157PA    C115 6813   2.385   1.651   4.832
  157PA    H15R 6814   2.335   1.553   4.849
  157PA    H15S 6815   2.316   1.732   4.868
  157PA    C114 6816   2.406   1.674   4.682
  157PA    H14R 6817   2.325   1.739   4.642
  157PA    H14S 6818   2.502   1.723   4.667
  157PA    C113 6819   2.420   1.552   4.593
  157PA    H13R 6820   2.340   1.480   4.615
  157PA    H13S 6821   2.406   1.587   4.488
  157PA    C112 6822   2.555   1.481   4.605
  157PA    H12R 6823   2.637   1.551   4.578
  157PA    H12S 6824   2.573   1.452   4.711
  157PA    C111 6825   2.563   1.360   4.512
  157PA    H11R 6826   2.657   1.303   4.533
  157PA    H11S 6827   2.478   1.292   4.534
  157PA    C110 6828   2.560   1.399   4.364
  157PA    H10R 6829   2.462   1.446   4.340
  157PA    H10S 6830   2.637   1.477   4.345
  157PA     C19 6831   2.578   1.279   4.272
  157PA     H9R 6832   2.663   1.217   4.309
  157PA     H9S 6833   2.485   1.217   4.278
  157PA     C18 6834   2.603   1.313   4.125
  157PA     H8R 6835   2.701   1.365   4.115
  157PA     H8S 6836   2.611   1.217   4.069
  157PA     C17 6837   2.492   1.399   4.063
  157PA     H7R 6838   2.394   1.348   4.082
  157PA     H7S 6839   2.489   1.498   4.115
  157PA     C16 6840   2.509   1.420   3.913
  157PA     H6R 6841   2.606   1.473   3.896
  157PA     H6S 6842   2.515   1.322   3.861
  157PA     C15 6843   2.399   1.507   3.850
  157PA     H5R 6844   2.381   1.597   3.912
  157PA     H5S 6845   2.440   1.541   3.754
  157PA     C14 6846   2.267   1.434   3.822
  157PA     H4R 6847   2.286   1.336   3.774
  157PA     H4S 6848   2.212   1.416   3.917
  157PA     C13 6849   2.177   1.514   3.728
  157PA     H3R 6850   2.156   1.615   3.771
  157PA     H3S 6851   2.224   1.529   3.628
  157PA     C12 6852   2.045   1.442   3.708
  157PA     H2R 6853   2.048   1.336   3.677
  157PA     H2S 6854   2.003   1.451   3.810
  158PC     C11 6855   1.960   1.521   3.613
  158PC     O12 6856   1.892   1.612   3.653
  158PC     O11 6857   1.991   1.485   3.489
  158PC      C1 6858   1.928   1.550   3.377
  158PC      HR 6859   1.855   1.483   3.324
  158PC      HS 6860   1.883   1.646   3.407
  158PC      C2 6861   2.017   1.609   3.273
  158PC      HX 6862   1.956   1.666   3.198
  158PC      C3 6863   2.092   1.501   3.204
  158PC      HA 6864   2.158   1.449   3.278
  158PC      HB 6865   2.017   1.429   3.167
  158PC     O31 6866   2.159   1.562   3.096
  158PC     P31 6867   2.315   1.557   3.090
  158PC     O32 6868   2.363   1.634   3.220
  158PC     C31 6869   2.504   1.660   3.228
  158PC     H1A 6870   2.552   1.675   3.128
  158PC     H1B 6871   2.519   1.756   3.282
  158PC     C32 6872   2.584   1.548   3.301
  158PC     H2A 6873   2.592   1.465   3.231
  158PC     H2B 6874   2.683   1.588   3.316
  158PC     N31 6875   2.528   1.497   3.433
  158PC     C33 6876   2.452   1.608   3.499
  158PC     H3A 6877   2.511   1.698   3.500
  158PC     H3B 6878   2.364   1.628   3.438
  158PC     H3C 6879   2.419   1.580   3.597
  158PC     C34 6880   2.428   1.387   3.406
  158PC     H4A 6881   2.356   1.422   3.331
  158PC     H4B 6882   2.475   1.301   3.360
  158PC     H4C 6883   2.375   1.357   3.495
  158PC     C35 6884   2.636   1.448   3.523
  158PC     H5A 6885   2.695   1.368   3.478
  158PC     H5B 6886   2.592   1.408   3.614
  158PC     H5C 6887   2.703   1.529   3.548
  158PC     O33 6888   2.353   1.415   3.109
  158PC     O34 6889   2.357   1.627   2.967
  158PC     O21 6890   2.111   1.691   3.337
  158PC     C21 6891   2.071   1.803   3.381
  158PC     O22 6892   1.961   1.854   3.375
  159OL     C12 6893   2.198   1.869   3.423
  159OL     H2R 6894   2.202   1.966   3.377
  159OL     H2S 6895   2.281   1.825   3.365
  159OL     C13 6896   2.217   1.857   3.576
  159OL     H3R 6897   2.314   1.905   3.600
  159OL     H3S 6898   2.227   1.747   3.595
  159OL     C14 6899   2.110   1.900   3.679
  159OL     H4R 6900   2.028   1.825   3.685
  159OL     H4S 6901   2.054   1.994   3.669
  159OL     C15 6902   2.176   1.924   3.815
  159OL     H5R 6903   2.234   2.019   3.813
  159OL     H5S 6904   2.246   1.841   3.836
  159OL     C16 6905   2.070   1.936   3.925
  159OL     H6R 6906   1.991   1.859   3.909
  159OL     H6S 6907   2.020   2.035   3.917
  159OL     C17 6908   2.130   1.922   4.066
  159OL     H7R 6909   2.047   1.934   4.140
  159OL     H7S 6910   2.205   2.002   4.083
  159OL     C18 6911   2.207   1.794   4.095
  159OL     H8R 6912   2.237   1.799   4.202
  159OL     H8S 6913   2.300   1.785   4.036
  159OL     C19 6914   2.125   1.673   4.069
  159OL     H9R 6915   2.095   1.655   3.965
  159OL    C110 6916   2.075   1.596   4.165
  159OL    H10R 6917   2.018   1.513   4.123
  159OL    C111 6918   2.086   1.609   4.318
  159OL    H11R 6919   1.999   1.671   4.347
  159OL    H11S 6920   2.172   1.673   4.346
  159OL    C112 6921   2.101   1.480   4.410
  159OL    H12R 6922   2.198   1.435   4.383
  159OL    H12S 6923   2.028   1.399   4.391
  159OL    C113 6924   2.093   1.496   4.564
  159OL    H13R 6925   1.994   1.499   4.607
  159OL    H13S 6926   2.125   1.596   4.599
  159OL    C114 6927   2.113   1.371   4.651
  159OL    H14R 6928   2.215   1.333   4.643
  159OL    H14S 6929   2.042   1.291   4.616
  159OL    C115 6930   2.075   1.409   4.795
  159OL    H15R 6931   1.968   1.425   4.795
  159OL    H15S 6932   2.120   1.506   4.824
  159OL    C116 6933   2.084   1.300   4.899
  159OL    H16R 6934   2.191   1.281   4.919
  159OL    H16S 6935   2.037   1.209   4.855
  159OL    C117 6936   2.007   1.336   5.027
  159OL    H17R 6937   2.013   1.247   5.094
  159OL    H17S 6938   1.899   1.350   5.002
  159OL    C118 6939   2.054   1.461   5.102
  159OL    H18R 6940   2.164   1.457   5.120
  159OL    H18S 6941   2.003   1.468   5.201
  159OL    H18T 6942   2.030   1.553   5.046
  160PA    C116 6943   2.455   2.312   5.249
  160PA    H16R 6944   2.479   2.213   5.294
  160PA    H16S 6945   2.378   2.362   5.312
  160PA    H16T 6946   2.547   2.375   5.252
  160PA    C115 6947   2.408   2.296   5.104
  160PA    H15R 6948   2.490   2.254   5.043
  160PA    H15S 6949   2.323   2.225   5.100
  160PA    C114 6950   2.366   2.429   5.040
  160PA    H14R 6951   2.263   2.450   5.076
  160PA    H14S 6952   2.434   2.509   5.079
  160PA    C113 6953   2.369   2.433   4.886
  160PA    H13R 6954   2.474   2.440   4.851
  160PA    H13S 6955   2.325   2.338   4.847
  160PA    C112 6956   2.288   2.549   4.826
  160PA    H12R 6957   2.185   2.544   4.868
  160PA    H12S 6958   2.328   2.649   4.852
  160PA    C111 6959   2.276   2.544   4.675
  160PA    H11R 6960   2.373   2.570   4.627
  160PA    H11S 6961   2.248   2.439   4.648
  160PA    C110 6962   2.165   2.636   4.624
  160PA    H10R 6963   2.073   2.620   4.684
  160PA    H10S 6964   2.196   2.741   4.637
  160PA     C19 6965   2.136   2.615   4.476
  160PA     H9R 6966   2.214   2.665   4.415
  160PA     H9S 6967   2.142   2.505   4.456
  160PA     C18 6968   1.998   2.664   4.431
  160PA     H8R 6969   1.920   2.615   4.493
  160PA     H8S 6970   1.993   2.774   4.450
  160PA     C17 6971   1.974   2.632   4.283
  160PA     H7R 6972   2.071   2.646   4.230
  160PA     H7S 6973   1.947   2.524   4.274
  160PA     C16 6974   1.867   2.718   4.212
  160PA     H6R 6975   1.766   2.679   4.239
  160PA     H6S 6976   1.873   2.823   4.246
  160PA     C15 6977   1.883   2.717   4.058
  160PA     H5R 6978   1.912   2.614   4.026
  160PA     H5S 6979   1.789   2.745   4.006
  160PA     C14 6980   1.988   2.815   4.010
  160PA     H4R 6981   1.950   2.919   4.002
  160PA     H4S 6982   2.059   2.814   4.096
  160PA     C13 6983   2.049   2.768   3.876
  160PA     H3R 6984   2.109   2.682   3.915
  160PA     H3S 6985   1.977   2.722   3.809
  160PA     C12 6986   2.125   2.880   3.796
  160PA     H2R 6987   2.083   2.981   3.786
  160PA     H2S 6988   2.193   2.894   3.876
  161PC     C11 6989   2.226   2.860   3.684
  161PC     O12 6990   2.346   2.878   3.693
  161PC     O11 6991   2.169   2.832   3.573
  161PC      C1 6992   2.262   2.767   3.483
  161PC      HR 6993   2.296   2.834   3.410
  161PC      HS 6994   2.364   2.766   3.512
  161PC      C2 6995   2.211   2.627   3.432
  161PC      HX 6996   2.279   2.585   3.354
  161PC      C3 6997   2.095   2.692   3.363
  161PC      HA 6998   2.037   2.730   3.447
  161PC      HB 6999   2.124   2.783   3.302
  161PC     O31 7000   2.020   2.599   3.293
  161PC     P31 7001   2.068   2.570   3.145
  161PC     O32 7002   2.047   2.413   3.149
  161PC     C31 7003   1.938   2.363   3.228
  161PC     H1A 7004   1.859   2.439   3.253
  161PC     H1B 7005   1.886   2.288   3.169
  161PC     C32 7006   1.986   2.302   3.360
  161PC     H2A 7007   2.031   2.379   3.421
  161PC     H2B 7008   1.897   2.265   3.411
  161PC     N31 7009   2.078   2.185   3.351
  161PC     C33 7010   2.021   2.091   3.250
  161PC     H3A 7011   2.028   2.137   3.152
  161PC     H3B 7012   2.073   1.995   3.246
  161PC     H3C 7013   1.918   2.064   3.273
  161PC     C34 7014   2.218   2.216   3.308
  161PC     H4A 7015   2.288   2.134   3.321
  161PC     H4B 7016   2.222   2.252   3.205
  161PC     H4C 7017   2.257   2.297   3.366
  161PC     C35 7018   2.084   2.135   3.490
  161PC     H5A 7019   1.992   2.086   3.521
  161PC     H5B 7020   2.121   2.203   3.565
  161PC     H5C 7021   2.158   2.057   3.496
  161PC     O33 7022   1.973   2.644   3.058
  161PC     O34 7023   2.210   2.606   3.133
  161PC     O21 7024   2.173   2.527   3.537
  161PC     C21 7025   2.255   2.420   3.567
  161PC     O22 7026   2.343   2.382   3.494
  162OL     C12 7027   2.235   2.352   3.713
  162OL     H2R 7028   2.260   2.246   3.691
  162OL     H2S 7029   2.130   2.368   3.736
  162OL     C13 7030   2.325   2.367   3.846
  162OL     H3R 7031   2.302   2.459   3.902
  162OL     H3S 7032   2.435   2.361   3.830
  162OL     C14 7033   2.284   2.314   3.982
  162OL     H4R 7034   2.352   2.361   4.060
  162OL     H4S 7035   2.302   2.206   3.983
  162OL     C15 7036   2.142   2.360   4.018
  162OL     H5R 7037   2.073   2.346   3.932
  162OL     H5S 7038   2.135   2.468   4.045
  162OL     C16 7039   2.096   2.274   4.133
  162OL     H6R 7040   2.109   2.171   4.096
  162OL     H6S 7041   1.989   2.290   4.154
  162OL     C17 7042   2.185   2.297   4.256
  162OL     H7R 7043   2.186   2.406   4.276
  162OL     H7S 7044   2.289   2.266   4.234
  162OL     C18 7045   2.136   2.218   4.379
  162OL     H8R 7046   2.117   2.114   4.346
  162OL     H8S 7047   2.039   2.263   4.410
  162OL     C19 7048   2.234   2.222   4.493
  162OL     H9R 7049   2.305   2.306   4.487
  162OL    C110 7050   2.242   2.142   4.602
  162OL    H10R 7051   2.323   2.164   4.674
  162OL    C111 7052   2.156   2.025   4.643
  162OL    H11R 7053   2.218   1.932   4.645
  162OL    H11S 7054   2.073   2.007   4.572
  162OL    C112 7055   2.094   2.039   4.785
  162OL    H12R 7056   2.173   2.062   4.860
  162OL    H12S 7057   2.047   1.943   4.814
  162OL    C113 7058   1.988   2.150   4.788
  162OL    H13R 7059   1.915   2.134   4.706
  162OL    H13S 7060   2.040   2.246   4.768
  162OL    C114 7061   1.913   2.165   4.921
  162OL    H14R 7062   1.984   2.191   5.002
  162OL    H14S 7063   1.854   2.076   4.949
  162OL    C115 7064   1.817   2.281   4.907
  162OL    H15R 7065   1.746   2.264   4.823
  162OL    H15S 7066   1.885   2.367   4.883
  162OL    C116 7067   1.738   2.315   5.031
  162OL    H16R 7068   1.812   2.351   5.106
  162OL    H16S 7069   1.684   2.229   5.077
  162OL    C117 7070   1.639   2.423   4.992
  162OL    H17R 7071   1.600   2.469   5.085
  162OL    H17S 7072   1.548   2.382   4.943
  162OL    C118 7073   1.698   2.526   4.894
  162OL    H18R 7074   1.756   2.494   4.808
  162OL    H18S 7075   1.772   2.590   4.946
  162OL    H18T 7076   1.615   2.586   4.853
  163PA    C116 7077   2.879   4.063   5.477
  163PA    H16R 7078   2.891   4.065   5.586
  163PA    H16S 7079   2.788   4.110   5.438
  163PA    H16T 7080   2.936   4.147   5.481
  163PA    C115 7081   2.981   4.037   5.370
  163PA    H15R 7082   3.053   4.111   5.339
  163PA    H15S 7083   3.064   4.001   5.421
  163PA    C114 7084   2.901   3.984   5.254
  163PA    H14R 7085   2.966   3.925   5.191
  163PA    H14S 7086   2.814   3.937   5.308
  163PA    C113 7087   2.827   4.043   5.141
  163PA    H13R 7088   2.796   4.142   5.162
  163PA    H13S 7089   2.888   4.061   5.053
  163PA    C112 7090   2.706   3.954   5.108
  163PA    H12R 7091   2.648   3.926   5.195
  163PA    H12S 7092   2.621   3.997   5.055
  163PA    C111 7093   2.751   3.858   5.006
  163PA    H11R 7094   2.808   3.917   4.933
  163PA    H11S 7095   2.815   3.782   5.055
  163PA    C110 7096   2.630   3.808   4.932
  163PA    H10R 7097   2.558   3.772   5.009
  163PA    H10S 7098   2.584   3.895   4.879
  163PA     C19 7099   2.671   3.700   4.834
  163PA     H9R 7100   2.715   3.617   4.893
  163PA     H9S 7101   2.579   3.665   4.783
  163PA     C18 7102   2.778   3.745   4.733
  163PA     H8R 7103   2.871   3.773   4.786
  163PA     H8S 7104   2.802   3.658   4.668
  163PA     C17 7105   2.740   3.862   4.641
  163PA     H7R 7106   2.727   3.954   4.699
  163PA     H7S 7107   2.830   3.879   4.577
  163PA     C16 7108   2.614   3.839   4.556
  163PA     H6R 7109   2.621   3.742   4.504
  163PA     H6S 7110   2.525   3.839   4.622
  163PA     C15 7111   2.596   3.948   4.450
  163PA     H5R 7112   2.501   3.934   4.394
  163PA     H5S 7113   2.586   4.043   4.506
  163PA     C14 7114   2.715   3.949   4.352
  163PA     H4R 7115   2.810   3.976   4.404
  163PA     H4S 7116   2.724   3.847   4.310
  163PA     C13 7117   2.703   4.042   4.234
  163PA     H3R 7118   2.601   4.038   4.190
  163PA     H3S 7119   2.712   4.147   4.255
  163PA     C12 7120   2.824   4.035   4.143
  163PA     H2R 7121   2.903   4.104   4.183
  163PA     H2S 7122   2.871   3.936   4.135
  164PC     C11 7123   2.768   4.075   4.010
  164PC     O12 7124   2.676   4.154   3.994
  164PC     O11 7125   2.836   4.012   3.915
  164PC      C1 7126   2.836   4.082   3.789
  164PC      HR 7127   2.737   4.122   3.756
  164PC      HS 7128   2.900   4.160   3.819
  164PC      C2 7129   2.950   4.067   3.682
  164PC      HX 7130   2.930   4.135   3.594
  164PC      C3 7131   2.924   3.929   3.631
  164PC      HA 7132   2.895   3.865   3.718
  164PC      HB 7133   2.834   3.938   3.564
  164PC     O31 7134   3.041   3.880   3.569
  164PC     P31 7135   3.060   3.919   3.418
  164PC     O32 7136   2.933   3.846   3.360
  164PC     C31 7137   2.939   3.711   3.315
  164PC     H1A 7138   3.020   3.652   3.366
  164PC     H1B 7139   2.844   3.659   3.340
  164PC     C32 7140   2.963   3.713   3.164
  164PC     H2A 7141   3.056   3.768   3.149
  164PC     H2B 7142   2.982   3.610   3.134
  164PC     N31 7143   2.852   3.770   3.073
  164PC     C33 7144   2.823   3.914   3.097
  164PC     H3A 7145   2.739   3.944   3.036
  164PC     H3B 7146   2.804   3.933   3.203
  164PC     H3C 7147   2.908   3.974   3.070
  164PC     C34 7148   2.897   3.762   2.931
  164PC     H4A 7149   2.819   3.792   2.861
  164PC     H4B 7150   2.983   3.827   2.914
  164PC     H4C 7151   2.930   3.662   2.905
  164PC     C35 7152   2.728   3.689   3.097
  164PC     H5A 7153   2.644   3.719   3.036
  164PC     H5B 7154   2.701   3.697   3.202
  164PC     H5C 7155   2.745   3.583   3.079
  164PC     O33 7156   3.040   4.064   3.391
  164PC     O34 7157   3.183   3.853   3.367
  164PC     O21 7158   3.084   4.097   3.736
  164PC     C21 7159   3.152   4.203   3.688
  164PC     O22 7160   3.116   4.278   3.600
  165OL     C12 7161   3.277   4.240   3.768
  165OL     H2R 7162   3.273   4.345   3.804
  165OL     H2S 7163   3.359   4.235   3.693
  165OL     C13 7164   3.314   4.144   3.880
  165OL     H3R 7165   3.421   4.166   3.906
  165OL     H3S 7166   3.309   4.039   3.845
  165OL     C14 7167   3.236   4.160   4.010
  165OL     H4R 7168   3.130   4.125   4.000
  165OL     H4S 7169   3.234   4.266   4.045
  165OL     C15 7170   3.310   4.076   4.111
  165OL     H5R 7171   3.411   4.121   4.129
  165OL     H5S 7172   3.326   3.973   4.073
  165OL     C16 7173   3.235   4.072   4.240
  165OL     H6R 7174   3.128   4.041   4.232
  165OL     H6S 7175   3.241   4.172   4.288
  165OL     C17 7176   3.300   3.972   4.327
  165OL     H7R 7177   3.410   3.997   4.333
  165OL     H7S 7178   3.293   3.866   4.292
  165OL     C18 7179   3.234   3.983   4.463
  165OL     H8R 7180   3.327   3.945   4.496
  165OL     H8S 7181   3.155   3.908   4.485
  165OL     C19 7182   3.226   4.111   4.540
  165OL     H9R 7183   3.307   4.182   4.515
  165OL    C110 7184   3.158   4.128   4.655
  165OL    H10R 7185   3.169   4.227   4.703
  165OL    C111 7186   3.076   4.021   4.728
  165OL    H11R 7187   3.104   3.918   4.697
  165OL    H11S 7188   2.970   4.036   4.697
  165OL    C112 7189   3.052   4.019   4.882
  165OL    H12R 7190   2.986   3.938   4.913
  165OL    H12S 7191   3.019   4.122   4.904
  165OL    C113 7192   3.150   3.991   4.990
  165OL    H13R 7193   3.125   3.992   5.095
  165OL    H13S 7194   3.223   4.067   4.964
  165OL    C114 7195   3.215   3.863   5.002
  165OL    H14R 7196   3.298   3.857   5.073
  165OL    H14S 7197   3.235   3.876   4.900
  165OL    C115 7198   3.168   3.737   5.036
  165OL    H15R 7199   3.073   3.772   5.079
  165OL    H15S 7200   3.248   3.692   5.106
  165OL    C116 7201   3.138   3.649   4.922
  165OL    H16R 7202   3.226   3.587   4.892
  165OL    H16S 7203   3.097   3.707   4.837
  165OL    C117 7204   3.033   3.575   4.991
  165OL    H17R 7205   2.997   3.495   4.923
  165OL    H17S 7206   2.946   3.640   5.013
  165OL    C118 7207   3.099   3.526   5.120
  165OL    H18R 7208   3.198   3.486   5.086
  165OL    H18S 7209   3.024   3.462   5.170
  165OL    H18T 7210   3.154   3.567   5.203
  166PA    C116 7211   4.386   2.521   5.377
  166PA    H16R 7212   4.356   2.624   5.407
  166PA    H16S 7213   4.479   2.494   5.431
  166PA    H16T 7214   4.306   2.454   5.412
  166PA    C115 7215   4.406   2.514   5.225
  166PA    H15R 7216   4.432   2.412   5.193
  166PA    H15S 7217   4.315   2.554   5.176
  166PA    C114 7218   4.519   2.604   5.183
  166PA    H14R 7219   4.475   2.702   5.216
  166PA    H14S 7220   4.610   2.571   5.238
  166PA    C113 7221   4.562   2.629   5.040
  166PA    H13R 7222   4.654   2.691   5.041
  166PA    H13S 7223   4.586   2.534   4.989
  166PA    C112 7224   4.455   2.709   4.968
  166PA    H12R 7225   4.358   2.658   4.982
  166PA    H12S 7226   4.446   2.808   5.016
  166PA    C111 7227   4.490   2.728   4.822
  166PA    H11R 7228   4.585   2.786   4.814
  166PA    H11S 7229   4.510   2.627   4.779
  166PA    C110 7230   4.376   2.797   4.748
  166PA    H10R 7231   4.284   2.736   4.768
  166PA    H10S 7232   4.357   2.897   4.791
  166PA     C19 7233   4.391   2.808   4.596
  166PA     H9R 7234   4.437   2.717   4.554
  166PA     H9S 7235   4.290   2.822   4.550
  166PA     C18 7236   4.491   2.906   4.539
  166PA     H8R 7237   4.447   3.007   4.543
  166PA     H8S 7238   4.586   2.904   4.597
  166PA     C17 7239   4.523   2.864   4.394
  166PA     H7R 7240   4.600   2.784   4.392
  166PA     H7S 7241   4.433   2.823   4.343
  166PA     C16 7242   4.572   2.985   4.318
  166PA     H6R 7243   4.495   3.066   4.325
  166PA     H6S 7244   4.663   3.020   4.369
  166PA     C15 7245   4.602   2.954   4.171
  166PA     H5R 7246   4.680   2.874   4.170
  166PA     H5S 7247   4.512   2.916   4.121
  166PA     C14 7248   4.656   3.077   4.099
  166PA     H4R 7249   4.591   3.165   4.123
  166PA     H4S 7250   4.757   3.090   4.145
  166PA     C13 7251   4.688   3.075   3.950
  166PA     H3R 7252   4.751   3.155   3.910
  166PA     H3S 7253   4.762   3.002   3.934
  166PA     C12 7254   4.568   3.083   3.861
  166PA     H2R 7255   4.500   2.999   3.885
  166PA     H2S 7256   4.518   3.181   3.879
  167PC     C11 7257   4.610   3.075   3.715
  167PC     O12 7258   4.721   3.094   3.668
  167PC     O11 7259   4.502   3.042   3.649
  167PC      C1 7260   4.522   3.022   3.509
  167PC      HR 7261   4.421   3.021   3.466
  167PC      HS 7262   4.579   3.106   3.463
  167PC      C2 7263   4.589   2.885   3.480
  167PC      HX 7264   4.692   2.892   3.524
  167PC      C3 7265   4.612   2.857   3.328
  167PC      HA 7266   4.664   2.943   3.281
  167PC      HB 7267   4.681   2.770   3.322
  167PC     O31 7268   4.494   2.818   3.259
  167PC     P31 7269   4.425   2.907   3.150
  167PC     O32 7270   4.387   3.032   3.242
  167PC     C31 7271   4.299   3.134   3.196
  167PC     H1A 7272   4.325   3.227   3.250
  167PC     H1B 7273   4.312   3.154   3.087
  167PC     C32 7274   4.152   3.097   3.222
  167PC     H2A 7275   4.089   3.174   3.180
  167PC     H2B 7276   4.137   3.005   3.166
  167PC     N31 7277   4.108   3.074   3.366
  167PC     C33 7278   4.151   2.935   3.410
  167PC     H3A 7279   4.123   2.860   3.337
  167PC     H3B 7280   4.260   2.926   3.416
  167PC     H3C 7281   4.108   2.909   3.506
  167PC     C34 7282   4.166   3.174   3.461
  167PC     H4A 7283   4.146   3.148   3.564
  167PC     H4B 7284   4.275   3.172   3.450
  167PC     H4C 7285   4.131   3.274   3.442
  167PC     C35 7286   3.961   3.081   3.371
  167PC     H5A 7287   3.918   3.031   3.285
  167PC     H5B 7288   3.925   3.183   3.370
  167PC     H5C 7289   3.926   3.031   3.461
  167PC     O33 7290   4.519   2.961   3.048
  167PC     O34 7291   4.293   2.853   3.111
  167PC     O21 7292   4.507   2.781   3.538
  167PC     C21 7293   4.574   2.694   3.611
  167PC     O22 7294   4.693   2.701   3.638
  168OL     C12 7295   4.474   2.596   3.671
  168OL     H2R 7296   4.534   2.510   3.706
  168OL     H2S 7297   4.407   2.559   3.590
  168OL     C13 7298   4.393   2.657   3.788
  168OL     H3R 7299   4.459   2.727   3.843
  168OL     H3S 7300   4.367   2.576   3.859
  168OL     C14 7301   4.263   2.727   3.744
  168OL     H4R 7302   4.188   2.653   3.708
  168OL     H4S 7303   4.289   2.792   3.657
  168OL     C15 7304   4.202   2.817   3.851
  168OL     H5R 7305   4.286   2.874   3.895
  168OL     H5S 7306   4.153   2.756   3.932
  168OL     C16 7307   4.101   2.915   3.790
  168OL     H6R 7308   4.025   2.855   3.734
  168OL     H6S 7309   4.157   2.977   3.716
  168OL     C17 7310   4.025   3.007   3.887
  168OL     H7R 7311   3.960   2.948   3.955
  168OL     H7S 7312   3.956   3.069   3.824
  168OL     C18 7313   4.108   3.104   3.973
  168OL     H8R 7314   4.036   3.166   4.026
  168OL     H8S 7315   4.168   3.173   3.907
  168OL     C19 7316   4.188   3.045   4.086
  168OL     H9R 7317   4.271   2.981   4.055
  168OL    C110 7318   4.164   3.055   4.218
  168OL    H10R 7319   4.239   3.013   4.286
  168OL    C111 7320   4.054   3.125   4.292
  168OL    H11R 7321   3.989   3.058   4.351
  168OL    H11S 7322   3.985   3.185   4.227
  168OL    C112 7323   4.120   3.222   4.388
  168OL    H12R 7324   4.032   3.275   4.433
  168OL    H12S 7325   4.197   3.288   4.341
  168OL    C113 7326   4.170   3.183   4.519
  168OL    H13R 7327   4.262   3.122   4.509
  168OL    H13S 7328   4.088   3.126   4.569
  168OL    C114 7329   4.197   3.311   4.599
  168OL    H14R 7330   4.106   3.347   4.653
  168OL    H14S 7331   4.239   3.395   4.540
  168OL    C115 7332   4.293   3.268   4.701
  168OL    H15R 7333   4.314   3.358   4.763
  168OL    H15S 7334   4.391   3.239   4.655
  168OL    C116 7335   4.225   3.146   4.771
  168OL    H16R 7336   4.314   3.096   4.814
  168OL    H16S 7337   4.196   3.058   4.713
  168OL    C117 7338   4.108   3.186   4.871
  168OL    H17R 7339   4.016   3.217   4.822
  168OL    H17S 7340   4.138   3.283   4.919
  168OL    C118 7341   4.085   3.088   4.990
  168OL    H18R 7342   4.032   2.996   4.960
  168OL    H18S 7343   4.035   3.139   5.075
  168OL    H18T 7344   4.180   3.050   5.035
  169PA    C116 7345   4.078   3.635   5.298
  169PA    H16R 7346   4.153   3.709   5.265
  169PA    H16S 7347   4.069   3.624   5.408
  169PA    H16T 7348   4.003   3.705   5.291
  169PA    C115 7349   3.992   3.545   5.205
  169PA    H15R 7350   4.021   3.445   5.242
  169PA    H15S 7351   3.885   3.558   5.233
  169PA    C114 7352   4.002   3.552   5.047
  169PA    H14R 7353   4.105   3.586   5.023
  169PA    H14S 7354   3.990   3.445   5.020
  169PA    C113 7355   3.901   3.628   4.952
  169PA    H13R 7356   3.794   3.621   4.982
  169PA    H13S 7357   3.923   3.735   4.948
  169PA    C112 7358   3.924   3.638   4.801
  169PA    H12R 7359   3.866   3.724   4.758
  169PA    H12S 7360   4.031   3.661   4.781
  169PA    C111 7361   3.874   3.513   4.737
  169PA    H11R 7362   3.934   3.430   4.779
  169PA    H11S 7363   3.768   3.499   4.769
  169PA    C110 7364   3.876   3.521   4.585
  169PA    H10R 7365   3.866   3.416   4.550
  169PA    H10S 7366   3.788   3.580   4.551
  169PA     C19 7367   3.998   3.591   4.523
  169PA     H9R 7368   4.011   3.695   4.561
  169PA     H9S 7369   4.089   3.537   4.555
  169PA     C18 7370   3.987   3.601   4.369
  169PA     H8R 7371   3.892   3.648   4.337
  169PA     H8S 7372   4.076   3.657   4.330
  169PA     C17 7373   3.998   3.465   4.308
  169PA     H7R 7374   4.091   3.445   4.366
  169PA     H7S 7375   3.914   3.397   4.336
  169PA     C16 7376   4.042   3.443   4.164
  169PA     H6R 7377   4.127   3.510   4.139
  169PA     H6S 7378   4.085   3.341   4.149
  169PA     C15 7379   3.922   3.457   4.074
  169PA     H5R 7380   3.832   3.414   4.125
  169PA     H5S 7381   3.907   3.566   4.060
  169PA     C14 7382   3.938   3.384   3.941
  169PA     H4R 7383   4.043   3.392   3.904
  169PA     H4S 7384   3.911   3.278   3.959
  169PA     C13 7385   3.836   3.424   3.838
  169PA     H3R 7386   3.739   3.437   3.892
  169PA     H3S 7387   3.867   3.521   3.794
  169PA     C12 7388   3.821   3.313   3.733
  169PA     H2R 7389   3.917   3.293   3.681
  169PA     H2S 7390   3.787   3.218   3.781
  170PC     C11 7391   3.717   3.354   3.631
  170PC     O12 7392   3.600   3.325   3.637
  170PC     O11 7393   3.777   3.422   3.534
  170PC      C1 7394   3.693   3.487   3.436
  170PC      HR 7395   3.759   3.519   3.352
  170PC      HS 7396   3.617   3.417   3.394
  170PC      C2 7397   3.625   3.615   3.491
  170PC      HX 7398   3.545   3.580   3.560
  170PC      C3 7399   3.554   3.700   3.380
  170PC      HA 7400   3.486   3.634   3.324
  170PC      HB 7401   3.487   3.774   3.431
  170PC     O31 7402   3.647   3.761   3.288
  170PC     P31 7403   3.644   3.920   3.274
  170PC     O32 7404   3.774   3.939   3.190
  170PC     C31 7405   3.842   3.846   3.109
  170PC     H1A 7406   3.770   3.802   3.037
  170PC     H1B 7407   3.921   3.900   3.052
  170PC     C32 7408   3.903   3.730   3.188
  170PC     H2A 7409   3.820   3.691   3.246
  170PC     H2B 7410   3.932   3.656   3.117
  170PC     N31 7411   4.020   3.758   3.281
  170PC     C33 7412   3.980   3.867   3.377
  170PC     H3A 7413   3.898   3.835   3.442
  170PC     H3B 7414   4.061   3.903   3.438
  170PC     H3C 7415   3.936   3.952   3.323
  170PC     C34 7416   4.045   3.634   3.361
  170PC     H4A 7417   4.138   3.641   3.416
  170PC     H4B 7418   3.965   3.623   3.434
  170PC     H4C 7419   4.047   3.547   3.298
  170PC     C35 7420   4.139   3.807   3.203
  170PC     H5A 7421   4.187   3.730   3.145
  170PC     H5B 7422   4.214   3.852   3.267
  170PC     H5C 7423   4.107   3.886   3.134
  170PC     O33 7424   3.523   3.959   3.198
  170PC     O34 7425   3.671   3.978   3.408
  170PC     O21 7426   3.727   3.690   3.560
  170PC     C21 7427   3.676   3.768   3.654
  170PC     O22 7428   3.559   3.775   3.686
  171OL     C12 7429   3.790   3.833   3.733
  171OL     H2R 7430   3.864   3.877   3.664
  171OL     H2S 7431   3.839   3.754   3.794
  171OL     C13 7432   3.732   3.941   3.827
  171OL     H3R 7433   3.657   3.895   3.895
  171OL     H3S 7434   3.678   4.017   3.766
  171OL     C14 7435   3.840   4.012   3.910
  171OL     H4R 7436   3.905   4.067   3.838
  171OL     H4S 7437   3.904   3.938   3.962
  171OL     C15 7438   3.783   4.114   4.010
  171OL     H5R 7439   3.705   4.175   3.958
  171OL     H5S 7440   3.864   4.183   4.042
  171OL     C16 7441   3.719   4.053   4.136
  171OL     H6R 7442   3.639   3.982   4.107
  171OL     H6S 7443   3.670   4.137   4.191
  171OL     C17 7444   3.818   3.985   4.233
  171OL     H7R 7445   3.903   4.056   4.249
  171OL     H7S 7446   3.860   3.893   4.187
  171OL     C18 7447   3.758   3.951   4.371
  171OL     H8R 7448   3.726   4.046   4.418
  171OL     H8S 7449   3.838   3.908   4.435
  171OL     C19 7450   3.641   3.855   4.364
  171OL     H9R 7451   3.604   3.830   4.264
  171OL    C110 7452   3.584   3.795   4.469
  171OL    H10R 7453   3.487   3.744   4.454
  171OL    C111 7454   3.624   3.812   4.612
  171OL    H11R 7455   3.731   3.835   4.628
  171OL    H11S 7456   3.601   3.721   4.672
  171OL    C112 7457   3.545   3.928   4.666
  171OL    H12R 7458   3.541   4.021   4.607
  171OL    H12S 7459   3.600   3.956   4.758
  171OL    C113 7460   3.405   3.877   4.688
  171OL    H13R 7461   3.365   3.814   4.604
  171OL    H13S 7462   3.336   3.961   4.712
  171OL    C114 7463   3.392   3.774   4.787
  171OL    H14R 7464   3.411   3.670   4.757
  171OL    H14S 7465   3.281   3.768   4.774
  171OL    C115 7466   3.468   3.828   4.913
  171OL    H15R 7467   3.574   3.804   4.907
  171OL    H15S 7468   3.431   3.752   4.984
  171OL    C116 7469   3.454   3.985   4.956
  171OL    H16R 7470   3.383   4.039   4.892
  171OL    H16S 7471   3.520   4.051   4.899
  171OL    C117 7472   3.417   4.032   5.104
  171OL    H17R 7473   3.396   3.958   5.185
  171OL    H17S 7474   3.324   4.088   5.119
  171OL    C118 7475   3.511   4.124   5.156
  171OL    H18R 7476   3.508   4.211   5.090
  171OL    H18S 7477   3.603   4.062   5.158
  171OL    H18T 7478   3.469   4.157   5.253
  172PA    C116 7479   3.785   1.487   5.217
  172PA    H16R 7480   3.676   1.475   5.231
  172PA    H16S 7481   3.803   1.590   5.185
  172PA    H16T 7482   3.839   1.467   5.312
  172PA    C115 7483   3.841   1.403   5.104
  172PA    H15R 7484   3.952   1.397   5.117
  172PA    H15S 7485   3.799   1.300   5.109
  172PA    C114 7486   3.815   1.464   4.966
  172PA    H14R 7487   3.707   1.465   4.941
  172PA    H14S 7488   3.851   1.568   4.962
  172PA    C113 7489   3.896   1.387   4.863
  172PA    H13R 7490   4.001   1.378   4.900
  172PA    H13S 7491   3.854   1.284   4.859
  172PA    C112 7492   3.898   1.452   4.726
  172PA    H12R 7493   3.817   1.526   4.715
  172PA    H12S 7494   3.992   1.512   4.718
  172PA    C111 7495   3.902   1.350   4.611
  172PA    H11R 7496   3.905   1.409   4.517
  172PA    H11S 7497   3.996   1.292   4.619
  172PA    C110 7498   3.794   1.239   4.605
  172PA    H10R 7499   3.817   1.172   4.519
  172PA    H10S 7500   3.779   1.181   4.697
  172PA     C19 7501   3.662   1.298   4.569
  172PA     H9R 7502   3.623   1.362   4.652
  172PA     H9S 7503   3.706   1.362   4.491
  172PA     C18 7504   3.552   1.206   4.512
  172PA     H8R 7505   3.531   1.132   4.591
  172PA     H8S 7506   3.457   1.264   4.511
  172PA     C17 7507   3.576   1.134   4.373
  172PA     H7R 7508   3.651   1.056   4.389
  172PA     H7S 7509   3.477   1.088   4.347
  172PA     C16 7510   3.617   1.216   4.248
  172PA     H6R 7511   3.517   1.243   4.218
  172PA     H6S 7512   3.695   1.293   4.263
  172PA     C15 7513   3.650   1.182   4.105
  172PA     H5R 7514   3.574   1.118   4.058
  172PA     H5S 7515   3.650   1.278   4.046
  172PA     C14 7516   3.790   1.133   4.104
  172PA     H4R 7517   3.858   1.200   4.160
  172PA     H4S 7518   3.784   1.045   4.168
  172PA     C13 7519   3.833   1.123   3.960
  172PA     H3R 7520   3.800   1.034   3.906
  172PA     H3S 7521   3.787   1.209   3.906
  172PA     C12 7522   3.982   1.111   3.942
  172PA     H2R 7523   4.032   1.192   3.998
  172PA     H2S 7524   4.016   1.011   3.977
  173PC     C11 7525   3.998   1.125   3.793
  173PC     O12 7526   4.021   1.034   3.714
  173PC     O11 7527   3.971   1.250   3.760
  173PC      C1 7528   3.973   1.282   3.619
  173PC      HR 7529   4.029   1.377   3.606
  173PC      HS 7530   4.024   1.204   3.558
  173PC      C2 7531   3.832   1.306   3.559
  173PC      HX 7532   3.767   1.221   3.587
  173PC      C3 7533   3.839   1.317   3.405
  173PC      HA 7534   3.901   1.233   3.365
  173PC      HB 7535   3.734   1.304   3.369
  173PC     O31 7536   3.895   1.442   3.361
  173PC     P31 7537   3.879   1.481   3.208
  173PC     O32 7538   4.033   1.477   3.166
  173PC     C31 7539   4.117   1.582   3.211
  173PC     H1A 7540   4.180   1.615   3.126
  173PC     H1B 7541   4.061   1.673   3.247
  173PC     C32 7542   4.211   1.539   3.325
  173PC     H2A 7543   4.282   1.619   3.339
  173PC     H2B 7544   4.151   1.534   3.416
  173PC     N31 7545   4.288   1.408   3.310
  173PC     C33 7546   4.331   1.386   3.168
  173PC     H3A 7547   4.399   1.463   3.135
  173PC     H3B 7548   4.377   1.289   3.154
  173PC     H3C 7549   4.243   1.391   3.102
  173PC     C34 7550   4.407   1.412   3.400
  173PC     H4A 7551   4.457   1.315   3.405
  173PC     H4B 7552   4.480   1.484   3.366
  173PC     H4C 7553   4.379   1.440   3.501
  173PC     C35 7554   4.198   1.296   3.349
  173PC     H5A 7555   4.158   1.313   3.448
  173PC     H5B 7556   4.251   1.202   3.347
  173PC     H5C 7557   4.112   1.295   3.281
  173PC     O33 7558   3.812   1.370   3.136
  173PC     O34 7559   3.828   1.619   3.190
  173PC     O21 7560   3.786   1.432   3.608
  173PC     C21 7561   3.678   1.434   3.679
  173PC     O22 7562   3.601   1.342   3.699
  174OL     C12 7563   3.687   1.566   3.752
  174OL     H2R 7564   3.586   1.590   3.787
  174OL     H2S 7565   3.713   1.644   3.678
  174OL     C13 7566   3.798   1.552   3.859
  174OL     H3R 7567   3.892   1.518   3.810
  174OL     H3S 7568   3.766   1.478   3.936
  174OL     C14 7569   3.834   1.679   3.934
  174OL     H4R 7570   3.733   1.713   3.959
  174OL     H4S 7571   3.887   1.753   3.870
  174OL     C15 7572   3.915   1.660   4.062
  174OL     H5R 7573   3.864   1.584   4.125
  174OL     H5S 7574   3.918   1.754   4.122
  174OL     C16 7575   4.059   1.622   4.029
  174OL     H6R 7576   4.108   1.707   3.977
  174OL     H6S 7577   4.060   1.535   3.960
  174OL     C17 7578   4.137   1.587   4.155
  174OL     H7R 7579   4.125   1.668   4.230
  174OL     H7S 7580   4.245   1.581   4.129
  174OL     C18 7581   4.082   1.457   4.215
  174OL     H8R 7582   3.992   1.421   4.161
  174OL     H8S 7583   4.053   1.473   4.321
  174OL     C19 7584   4.180   1.347   4.201
  174OL     H9R 7585   4.217   1.326   4.099
  174OL    C110 7586   4.227   1.278   4.304
  174OL    H10R 7587   4.285   1.190   4.281
  174OL    C111 7588   4.197   1.289   4.450
  174OL    H11R 7589   4.183   1.184   4.484
  174OL    H11S 7590   4.107   1.347   4.468
  174OL    C112 7591   4.301   1.347   4.547
  174OL    H12R 7592   4.370   1.268   4.552
  174OL    H12S 7593   4.277   1.334   4.653
  174OL    C113 7594   4.374   1.479   4.511
  174OL    H13R 7595   4.410   1.482   4.406
  174OL    H13S 7596   4.467   1.502   4.568
  174OL    C114 7597   4.291   1.594   4.561
  174OL    H14R 7598   4.204   1.598   4.492
  174OL    H14S 7599   4.353   1.687   4.552
  174OL    C115 7600   4.250   1.576   4.709
  174OL    H15R 7601   4.187   1.486   4.725
  174OL    H15S 7602   4.190   1.665   4.737
  174OL    C116 7603   4.367   1.557   4.805
  174OL    H16R 7604   4.443   1.635   4.779
  174OL    H16S 7605   4.408   1.454   4.791
  174OL    C117 7606   4.336   1.563   4.954
  174OL    H17R 7607   4.274   1.478   4.988
  174OL    H17S 7608   4.268   1.649   4.963
  174OL    C118 7609   4.461   1.568   5.044
  174OL    H18R 7610   4.531   1.651   5.016
  174OL    H18S 7611   4.519   1.475   5.047
  174OL    H18T 7612   4.425   1.584   5.148
  175PA    C116 7613   1.703   2.736   5.124
  175PA    H16R 7614   1.660   2.718   5.219
  175PA    H16S 7615   1.786   2.803   5.146
  175PA    H16T 7616   1.733   2.630   5.121
  175PA    C115 7617   1.600   2.763   5.011
  175PA    H15R 7618   1.664   2.772   4.922
  175PA    H15S 7619   1.536   2.672   5.012
  175PA    C114 7620   1.506   2.881   4.995
  175PA    H14R 7621   1.428   2.889   5.072
  175PA    H14S 7622   1.574   2.967   4.986
  175PA    C113 7623   1.399   2.898   4.889
  175PA    H13R 7624   1.449   2.884   4.792
  175PA    H13S 7625   1.317   2.825   4.904
  175PA    C112 7626   1.341   3.041   4.906
  175PA    H12R 7627   1.230   3.035   4.907
  175PA    H12S 7628   1.369   3.091   5.002
  175PA    C111 7629   1.386   3.130   4.790
  175PA    H11R 7630   1.495   3.146   4.791
  175PA    H11S 7631   1.358   3.074   4.698
  175PA    C110 7632   1.314   3.263   4.784
  175PA    H10R 7633   1.206   3.240   4.796
  175PA    H10S 7634   1.348   3.331   4.866
  175PA     C19 7635   1.328   3.330   4.648
  175PA     H9R 7636   1.288   3.259   4.573
  175PA     H9S 7637   1.263   3.419   4.641
  175PA     C18 7638   1.471   3.372   4.612
  175PA     H8R 7639   1.508   3.450   4.683
  175PA     H8S 7640   1.540   3.285   4.619
  175PA     C17 7641   1.483   3.424   4.469
  175PA     H7R 7642   1.433   3.522   4.455
  175PA     H7S 7643   1.591   3.439   4.452
  175PA     C16 7644   1.434   3.328   4.361
  175PA     H6R 7645   1.487   3.231   4.370
  175PA     H6S 7646   1.325   3.312   4.374
  175PA     C15 7647   1.456   3.389   4.223
  175PA     H5R 7648   1.357   3.435   4.205
  175PA     H5S 7649   1.534   3.467   4.226
  175PA     C14 7650   1.488   3.294   4.107
  175PA     H4R 7651   1.585   3.244   4.129
  175PA     H4S 7652   1.408   3.217   4.099
  175PA     C13 7653   1.502   3.367   3.971
  175PA     H3R 7654   1.405   3.413   3.943
  175PA     H3S 7655   1.578   3.449   3.981
  175PA     C12 7656   1.531   3.276   3.851
  175PA     H2R 7657   1.468   3.185   3.858
  175PA     H2S 7658   1.503   3.329   3.757
  176PC     C11 7659   1.677   3.237   3.840
  176PC     O12 7660   1.763   3.255   3.925
  176PC     O11 7661   1.695   3.182   3.721
  176PC      C1 7662   1.828   3.152   3.677
  176PC      HR 7663   1.888   3.244   3.670
  176PC      HS 7664   1.878   3.082   3.749
  176PC      C2 7665   1.830   3.079   3.539
  176PC      HX 7666   1.935   3.081   3.503
  176PC      C3 7667   1.744   3.149   3.427
  176PC      HA 7668   1.775   3.257   3.424
  176PC      HB 7669   1.766   3.104   3.328
  176PC     O31 7670   1.607   3.135   3.456
  176PC     P31 7671   1.490   3.186   3.365
  176PC     O32 7672   1.464   3.059   3.276
  176PC     C31 7673   1.417   2.939   3.337
  176PC     H1A 7674   1.493   2.894   3.404
  176PC     H1B 7675   1.325   2.957   3.399
  176PC     C32 7676   1.381   2.842   3.224
  176PC     H2A 7677   1.344   2.751   3.268
  176PC     H2B 7678   1.300   2.890   3.170
  176PC     N31 7679   1.492   2.808   3.125
  176PC     C33 7680   1.459   2.687   3.049
  176PC     H3A 7681   1.373   2.699   2.984
  176PC     H3B 7682   1.544   2.662   2.986
  176PC     H3C 7683   1.451   2.602   3.115
  176PC     C34 7684   1.519   2.919   3.030
  176PC     H4A 7685   1.545   3.008   3.087
  176PC     H4B 7686   1.603   2.900   2.964
  176PC     H4C 7687   1.434   2.947   2.968
  176PC     C35 7688   1.624   2.785   3.191
  176PC     H5A 7689   1.619   2.706   3.264
  176PC     H5B 7690   1.656   2.877   3.241
  176PC     H5C 7691   1.701   2.760   3.118
  176PC     O33 7692   1.373   3.205   3.453
  176PC     O34 7693   1.530   3.296   3.275
  176PC     O21 7694   1.789   2.944   3.566
  176PC     C21 7695   1.826   2.857   3.475
  176PC     O22 7696   1.878   2.885   3.368
  177OL     C12 7697   1.812   2.717   3.539
  177OL     H2R 7698   1.849   2.724   3.644
  177OL     H2S 7699   1.876   2.645   3.486
  177OL     C13 7700   1.671   2.657   3.532
  177OL     H3R 7701   1.677   2.569   3.464
  177OL     H3S 7702   1.601   2.730   3.487
  177OL     C14 7703   1.612   2.612   3.666
  177OL     H4R 7704   1.685   2.553   3.725
  177OL     H4S 7705   1.524   2.547   3.643
  177OL     C15 7706   1.563   2.734   3.745
  177OL     H5R 7707   1.489   2.789   3.682
  177OL     H5S 7708   1.648   2.803   3.764
  177OL     C16 7709   1.493   2.701   3.878
  177OL     H6R 7710   1.566   2.652   3.946
  177OL     H6S 7711   1.411   2.628   3.859
  177OL     C17 7712   1.435   2.830   3.939
  177OL     H7R 7713   1.371   2.877   3.861
  177OL     H7S 7714   1.519   2.900   3.960
  177OL     C18 7715   1.349   2.809   4.065
  177OL     H8R 7716   1.405   2.747   4.138
  177OL     H8S 7717   1.259   2.750   4.034
  177OL     C19 7718   1.303   2.940   4.126
  177OL     H9R 7719   1.239   3.001   4.061
  177OL    C110 7720   1.331   2.984   4.250
  177OL    H10R 7721   1.288   3.081   4.281
  177OL    C111 7722   1.414   2.915   4.356
  177OL    H11R 7723   1.389   2.807   4.362
  177OL    H11S 7724   1.386   2.958   4.455
  177OL    C112 7725   1.567   2.929   4.335
  177OL    H12R 7726   1.591   3.034   4.308
  177OL    H12S 7727   1.597   2.865   4.249
  177OL    C113 7728   1.655   2.894   4.457
  177OL    H13R 7729   1.762   2.894   4.426
  177OL    H13S 7730   1.632   2.791   4.494
  177OL    C114 7731   1.639   2.995   4.572
  177OL    H14R 7732   1.531   3.009   4.591
  177OL    H14S 7733   1.681   3.093   4.540
  177OL    C115 7734   1.702   2.952   4.704
  177OL    H15R 7735   1.667   2.851   4.733
  177OL    H15S 7736   1.675   3.024   4.785
  177OL    C116 7737   1.852   2.949   4.698
  177OL    H16R 7738   1.891   3.047   4.663
  177OL    H16S 7739   1.886   2.873   4.623
  177OL    C117 7740   1.916   2.913   4.832
  177OL    H17R 7741   2.013   2.945   4.798
  177OL    H17S 7742   1.918   2.804   4.853
  177OL    C118 7743   1.902   2.999   4.957
  177OL    H18R 7744   1.984   2.974   5.029
  177OL    H18S 7745   1.805   2.986   5.008
  177OL    H18T 7746   1.915   3.106   4.931
  178PA    C116 7747   1.216   1.193   5.316
  178PA    H16R 7748   1.123   1.252   5.305
  178PA    H16S 7749   1.212   1.273   5.389
  178PA    H16T 7750   1.229   1.127   5.398
  178PA    C115 7751   1.319   1.160   5.191
  178PA    H15R 7752   1.382   1.083   5.238
  178PA    H15S 7753   1.256   1.094   5.125
  178PA    C114 7754   1.424   1.249   5.084
  178PA    H14R 7755   1.461   1.185   5.002
  178PA    H14S 7756   1.375   1.317   5.031
  178PA    C113 7757   1.500   1.400   5.089
  178PA    H13R 7758   1.442   1.488   5.116
  178PA    H13S 7759   1.552   1.434   5.176
  178PA    C112 7760   1.503   1.490   4.973
  178PA    H12R 7761   1.409   1.517   4.923
  178PA    H12S 7762   1.516   1.598   4.989
  178PA    C111 7763   1.615   1.426   4.909
  178PA    H11R 7764   1.703   1.424   4.979
  178PA    H11S 7765   1.597   1.320   4.884
  178PA    C110 7766   1.622   1.522   4.799
  178PA    H10R 7767   1.526   1.531   4.744
  178PA    H10S 7768   1.638   1.622   4.843
  178PA     C19 7769   1.742   1.493   4.727
  178PA     H9R 7770   1.812   1.508   4.813
  178PA     H9S 7771   1.745   1.387   4.693
  178PA     C18 7772   1.758   1.600   4.624
  178PA     H8R 7773   1.665   1.657   4.604
  178PA     H8S 7774   1.834   1.671   4.666
  178PA     C17 7775   1.808   1.537   4.497
  178PA     H7R 7776   1.896   1.602   4.487
  178PA     H7S 7777   1.834   1.430   4.513
  178PA     C16 7778   1.747   1.555   4.362
  178PA     H6R 7779   1.638   1.540   4.372
  178PA     H6S 7780   1.773   1.659   4.332
  178PA     C15 7781   1.805   1.453   4.263
  178PA     H5R 7782   1.912   1.450   4.258
  178PA     H5S 7783   1.790   1.348   4.296
  178PA     C14 7784   1.768   1.489   4.122
  178PA     H4R 7785   1.662   1.513   4.124
  178PA     H4S 7786   1.820   1.582   4.087
  178PA     C13 7787   1.799   1.378   4.023
  178PA     H3R 7788   1.907   1.351   4.022
  178PA     H3S 7789   1.745   1.287   4.057
  178PA     C12 7790   1.768   1.429   3.882
  178PA     H2R 7791   1.758   1.540   3.872
  178PA     H2S 7792   1.835   1.383   3.809
  179PC     C11 7793   1.654   1.363   3.825
  179PC     O12 7794   1.618   1.256   3.868
  179PC     O11 7795   1.607   1.434   3.727
  179PC      C1 7796   1.487   1.387   3.669
  179PC      HR 7797   1.493   1.293   3.613
  179PC      HS 7798   1.430   1.357   3.754
  179PC      C2 7799   1.400   1.487   3.590
  179PC      HX 7800   1.303   1.432   3.593
  179PC      C3 7801   1.428   1.500   3.444
  179PC      HA 7802   1.477   1.406   3.411
  179PC      HB 7803   1.332   1.518   3.390
  179PC     O31 7804   1.499   1.618   3.423
  179PC     P31 7805   1.643   1.615   3.457
  179PC     O32 7806   1.664   1.646   3.305
  179PC     C31 7807   1.629   1.779   3.266
  179PC     H1A 7808   1.613   1.851   3.351
  179PC     H1B 7809   1.716   1.820   3.212
  179PC     C32 7810   1.496   1.785   3.187
  179PC     H2A 7811   1.419   1.743   3.252
  179PC     H2B 7812   1.472   1.890   3.175
  179PC     N31 7813   1.492   1.716   3.052
  179PC     C33 7814   1.496   1.568   3.067
  179PC     H3A 7815   1.405   1.532   3.112
  179PC     H3B 7816   1.514   1.520   2.971
  179PC     H3C 7817   1.580   1.543   3.133
  179PC     C34 7818   1.370   1.757   2.975
  179PC     H4A 7819   1.374   1.863   2.955
  179PC     H4B 7820   1.367   1.704   2.881
  179PC     H4C 7821   1.277   1.742   3.029
  179PC     C35 7822   1.612   1.752   2.972
  179PC     H5A 7823   1.615   1.859   2.953
  179PC     H5B 7824   1.611   1.702   2.875
  179PC     H5C 7825   1.702   1.723   3.026
  179PC     O33 7826   1.692   1.733   3.533
  179PC     O34 7827   1.690   1.476   3.483
  179PC     O21 7828   1.410   1.617   3.654
  179PC     C21 7829   1.355   1.726   3.597
  179PC     O22 7830   1.284   1.731   3.499
  180OL     C12 7831   1.353   1.834   3.697
  180OL     H2R 7832   1.423   1.826   3.781
  180OL     H2S 7833   1.257   1.816   3.746
  180OL     C13 7834   1.338   1.965   3.622
  180OL     H3R 7835   1.303   2.040   3.697
  180OL     H3S 7836   1.266   1.954   3.537
  180OL     C14 7837   1.449   2.019   3.547
  180OL     H4R 7838   1.410   2.116   3.507
  180OL     H4S 7839   1.465   1.945   3.465
  180OL     C15 7840   1.557   2.030   3.649
  180OL     H5R 7841   1.646   2.058   3.591
  180OL     H5S 7842   1.576   1.928   3.691
  180OL     C16 7843   1.525   2.131   3.761
  180OL     H6R 7844   1.425   2.126   3.809
  180OL     H6S 7845   1.527   2.230   3.711
  180OL     C17 7846   1.622   2.123   3.877
  180OL     H7R 7847   1.636   2.229   3.910
  180OL     H7S 7848   1.719   2.084   3.840
  180OL     C18 7849   1.570   2.044   3.999
  180OL     H8R 7850   1.461   2.063   4.013
  180OL     H8S 7851   1.621   2.085   4.089
  180OL     C19 7852   1.594   1.895   3.996
  180OL     H9R 7853   1.641   1.854   3.905
  180OL    C110 7854   1.551   1.810   4.090
  180OL    H10R 7855   1.574   1.704   4.077
  180OL    C111 7856   1.472   1.846   4.214
  180OL    H11R 7857   1.406   1.761   4.243
  180OL    H11S 7858   1.405   1.932   4.194
  180OL    C112 7859   1.558   1.881   4.336
  180OL    H12R 7860   1.587   1.988   4.327
  180OL    H12S 7861   1.652   1.822   4.337
  180OL    C113 7862   1.488   1.860   4.471
  180OL    H13R 7863   1.486   1.752   4.496
  180OL    H13S 7864   1.383   1.897   4.466
  180OL    C114 7865   1.566   1.937   4.578
  180OL    H14R 7866   1.554   2.047   4.561
  180OL    H14S 7867   1.674   1.914   4.564
  180OL    C115 7868   1.530   1.904   4.723
  180OL    H15R 7869   1.602   1.965   4.783
  180OL    H15S 7870   1.549   1.796   4.741
  180OL    C116 7871   1.389   1.940   4.769
  180OL    H16R 7872   1.314   1.881   4.713
  180OL    H16S 7873   1.373   2.049   4.748
  180OL    C117 7874   1.366   1.917   4.919
  180OL    H17R 7875   1.369   1.810   4.947
  180OL    H17S 7876   1.263   1.954   4.943
  180OL    C118 7877   1.466   1.995   5.003
  180OL    H18R 7878   1.468   2.098   4.965
  180OL    H18S 7879   1.571   1.984   4.988
  180OL    H18T 7880   1.439   1.991   5.111
  181PA    C116 7881   2.455   0.703   5.115
  181PA    H16R 7882   2.474   0.680   5.219
  181PA    H16S 7883   2.352   0.670   5.090
  181PA    H16T 7884   2.464   0.812   5.106
  181PA    C115 7885   2.562   0.627   5.037
  181PA    H15R 7886   2.662   0.648   5.080
  181PA    H15S 7887   2.542   0.518   5.050
  181PA    C114 7888   2.560   0.657   4.887
  181PA    H14R 7889   2.623   0.582   4.835
  181PA    H14S 7890   2.455   0.646   4.852
  181PA    C113 7891   2.610   0.796   4.845
  181PA    H13R 7892   2.548   0.875   4.896
  181PA    H13S 7893   2.715   0.812   4.876
  181PA    C112 7894   2.599   0.808   4.692
  181PA    H12R 7895   2.677   0.743   4.647
  181PA    H12S 7896   2.500   0.769   4.660
  181PA    C111 7897   2.617   0.950   4.639
  181PA    H11R 7898   2.540   1.015   4.685
  181PA    H11S 7899   2.717   0.988   4.671
  181PA    C110 7900   2.605   0.960   4.486
  181PA    H10R 7901   2.499   0.950   4.456
  181PA    H10S 7902   2.639   1.063   4.457
  181PA     C19 7903   2.685   0.859   4.402
  181PA     H9R 7904   2.790   0.850   4.436
  181PA     H9S 7905   2.638   0.758   4.412
  181PA     C18 7906   2.679   0.896   4.253
  181PA     H8R 7907   2.571   0.892   4.223
  181PA     H8S 7908   2.714   1.000   4.235
  181PA     C17 7909   2.756   0.798   4.165
  181PA     H7R 7910   2.738   0.695   4.205
  181PA     H7S 7911   2.714   0.801   4.062
  181PA     C16 7912   2.906   0.831   4.155
  181PA     H6R 7913   2.916   0.939   4.133
  181PA     H6S 7914   2.956   0.810   4.252
  181PA     C15 7915   2.978   0.756   4.044
  181PA     H5R 7916   2.936   0.784   3.945
  181PA     H5S 7917   3.086   0.784   4.044
  181PA     C14 7918   2.968   0.605   4.062
  181PA     H4R 7919   3.035   0.575   4.145
  181PA     H4S 7920   2.864   0.578   4.089
  181PA     C13 7921   3.002   0.531   3.934
  181PA     H3R 7922   2.946   0.573   3.847
  181PA     H3S 7923   3.107   0.554   3.911
  181PA     C12 7924   2.975   0.381   3.947
  181PA     H2R 7925   3.027   0.329   3.863
  181PA     H2S 7926   3.011   0.339   4.042
  182PC     C11 7927   2.827   0.353   3.931
  182PC     O12 7928   2.735   0.397   3.998
  182PC     O11 7929   2.815   0.271   3.828
  182PC      C1 7930   2.679   0.251   3.792
  182PC      HR 7931   2.669   0.147   3.753
  182PC      HS 7932   2.612   0.256   3.881
  182PC      C2 7933   2.627   0.355   3.688
  182PC      HX 7934   2.519   0.332   3.669
  182PC      C3 7935   2.698   0.348   3.551
  182PC      HA 7936   2.808   0.348   3.573
  182PC      HB 7937   2.672   0.251   3.505
  182PC     O31 7938   2.655   0.449   3.458
  182PC     P31 7939   2.763   0.550   3.401
  182PC     O32 7940   2.680   0.660   3.326
  182PC     C31 7941   2.605   0.612   3.217
  182PC     H1A 7942   2.674   0.576   3.138
  182PC     H1B 7943   2.540   0.529   3.253
  182PC     C32 7944   2.514   0.723   3.166
  182PC     H2A 7945   2.449   0.678   3.092
  182PC     H2B 7946   2.453   0.754   3.251
  182PC     N31 7947   2.579   0.846   3.105
  182PC     C33 7948   2.657   0.925   3.207
  182PC     H3A 7949   2.712   1.006   3.162
  182PC     H3B 7950   2.595   0.962   3.287
  182PC     H3C 7951   2.730   0.857   3.255
  182PC     C34 7952   2.672   0.806   2.994
  182PC     H4A 7953   2.753   0.746   3.035
  182PC     H4B 7954   2.622   0.750   2.915
  182PC     H4C 7955   2.721   0.890   2.946
  182PC     C35 7956   2.473   0.928   3.046
  182PC     H5A 7957   2.414   0.975   3.123
  182PC     H5B 7958   2.409   0.868   2.981
  182PC     H5C 7959   2.524   1.004   2.988
  182PC     O33 7960   2.825   0.616   3.513
  182PC     O34 7961   2.848   0.475   3.306
  182PC     O21 7962   2.648   0.484   3.746
  182PC     C21 7963   2.542   0.555   3.770
  182PC     O22 7964   2.428   0.527   3.736
  183OL     C12 7965   2.583   0.672   3.859
  183OL     H2R 7966   2.655   0.733   3.801
  183OL     H2S 7967   2.637   0.629   3.946
  183OL     C13 7968   2.464   0.759   3.909
  183OL     H3R 7969   2.410   0.800   3.821
  183OL     H3S 7970   2.507   0.845   3.965
  183OL     C14 7971   2.362   0.686   3.998
  183OL     H4R 7972   2.303   0.616   3.936
  183OL     H4S 7973   2.292   0.762   4.040
  183OL     C15 7974   2.422   0.606   4.113
  183OL     H5R 7975   2.478   0.677   4.179
  183OL     H5S 7976   2.496   0.532   4.074
  183OL     C16 7977   2.317   0.528   4.195
  183OL     H6R 7978   2.240   0.483   4.129
  183OL     H6S 7979   2.268   0.599   4.265
  183OL     C17 7980   2.382   0.419   4.279
  183OL     H7R 7981   2.415   0.334   4.215
  183OL     H7S 7982   2.305   0.377   4.348
  183OL     C18 7983   2.497   0.483   4.353
  183OL     H8R 7984   2.453   0.561   4.421
  183OL     H8S 7985   2.572   0.536   4.288
  183OL     C19 7986   2.574   0.401   4.445
  183OL     H9R 7987   2.514   0.350   4.527
  183OL    C110 7988   2.692   0.349   4.400
  183OL    H10R 7989   2.734   0.260   4.432
  183OL    C111 7990   2.788   0.377   4.290
  183OL    H11R 7991   2.743   0.433   4.209
  183OL    H11S 7992   2.806   0.271   4.249
  183OL    C112 7993   2.927   0.398   4.340
  183OL    H12R 7994   3.003   0.402   4.260
  183OL    H12S 7995   2.968   0.311   4.394
  183OL    C113 7996   2.923   0.521   4.427
  183OL    H13R 7997   2.833   0.528   4.491
  183OL    H13S 7998   2.920   0.607   4.358
  183OL    C114 7999   3.038   0.528   4.520
  183OL    H14R 8000   3.126   0.562   4.461
  183OL    H14S 8001   3.064   0.432   4.570
  183OL    C115 8002   3.011   0.624   4.632
  183OL    H15R 8003   3.005   0.726   4.589
  183OL    H15S 8004   3.105   0.604   4.686
  183OL    C116 8005   2.902   0.599   4.739
  183OL    H16R 8006   2.803   0.586   4.691
  183OL    H16S 8007   2.898   0.686   4.807
  183OL    C117 8008   2.937   0.475   4.821
  183OL    H17R 8009   3.040   0.480   4.860
  183OL    H17S 8010   2.938   0.397   4.743
  183OL    C118 8011   2.844   0.431   4.935
  183OL    H18R 8012   2.894   0.352   4.995
  183OL    H18S 8013   2.750   0.387   4.897
  183OL    H18T 8014   2.820   0.515   5.003
  184PA    C116 8015   2.147   3.834   5.351
  184PA    H16R 8016   2.225   3.832   5.430
  184PA    H16S 8017   2.057   3.873   5.395
  184PA    H16T 8018   2.160   3.917   5.282
  184PA    C115 8019   2.119   3.697   5.289
  184PA    H15R 8020   2.186   3.683   5.203
  184PA    H15S 8021   2.142   3.609   5.351
  184PA    C114 8022   1.980   3.644   5.269
  184PA    H14R 8023   1.954   3.564   5.344
  184PA    H14S 8024   1.901   3.720   5.275
  184PA    C113 8025   1.985   3.590   5.130
  184PA    H13R 8026   1.881   3.592   5.095
  184PA    H13S 8027   2.033   3.664   5.064
  184PA    C112 8028   2.053   3.451   5.126
  184PA    H12R 8029   2.162   3.460   5.140
  184PA    H12S 8030   2.022   3.385   5.209
  184PA    C111 8031   2.010   3.383   4.997
  184PA    H11R 8032   1.914   3.329   5.009
  184PA    H11S 8033   1.990   3.464   4.923
  184PA    C110 8034   2.115   3.285   4.947
  184PA    H10R 8035   2.142   3.217   5.031
  184PA    H10S 8036   2.072   3.222   4.866
  184PA     C19 8037   2.236   3.361   4.894
  184PA     H9R 8038   2.271   3.433   4.971
  184PA     H9S 8039   2.318   3.289   4.875
  184PA     C18 8040   2.204   3.443   4.767
  184PA     H8R 8041   2.126   3.520   4.786
  184PA     H8S 8042   2.297   3.496   4.738
  184PA     C17 8043   2.157   3.358   4.649
  184PA     H7R 8044   2.238   3.284   4.643
  184PA     H7S 8045   2.062   3.305   4.672
  184PA     C16 8046   2.138   3.444   4.523
  184PA     H6R 8047   2.039   3.493   4.534
  184PA     H6S 8048   2.217   3.522   4.524
  184PA     C15 8049   2.139   3.378   4.383
  184PA     H5R 8050   2.239   3.342   4.358
  184PA     H5S 8051   2.067   3.294   4.376
  184PA     C14 8052   2.125   3.480   4.270
  184PA     H4R 8053   2.019   3.509   4.261
  184PA     H4S 8054   2.186   3.568   4.301
  184PA     C13 8055   2.182   3.432   4.136
  184PA     H3R 8056   2.292   3.419   4.144
  184PA     H3S 8057   2.140   3.332   4.109
  184PA     C12 8058   2.157   3.537   4.025
  184PA     H2R 8059   2.048   3.548   4.009
  184PA     H2S 8060   2.198   3.634   4.059
  185PC     C11 8061   2.222   3.501   3.892
  185PC     O12 8062   2.285   3.399   3.867
  185PC     O11 8063   2.201   3.600   3.804
  185PC      C1 8064   2.232   3.570   3.666
  185PC      HR 8065   2.272   3.662   3.618
  185PC      HS 8066   2.312   3.493   3.655
  185PC      C2 8067   2.107   3.524   3.585
  185PC      HX 8068   2.076   3.425   3.624
  185PC      C3 8069   2.142   3.501   3.433
  185PC      HA 8070   2.232   3.561   3.407
  185PC      HB 8071   2.166   3.394   3.421
  185PC     O31 8072   2.034   3.533   3.346
  185PC     P31 8073   2.044   3.545   3.187
  185PC     O32 8074   2.032   3.700   3.172
  185PC     C31 8075   2.133   3.776   3.236
  185PC     H1A 8076   2.146   3.753   3.344
  185PC     H1B 8077   2.229   3.774   3.179
  185PC     C32 8078   2.090   3.916   3.226
  185PC     H2A 8079   2.171   3.984   3.249
  185PC     H2B 8080   2.061   3.940   3.123
  185PC     N31 8081   1.979   3.954   3.309
  185PC     C33 8082   1.846   3.892   3.275
  185PC     H3A 8083   1.825   3.894   3.169
  185PC     H3B 8084   1.843   3.787   3.305
  185PC     H3C 8085   1.766   3.944   3.326
  185PC     C34 8086   1.991   3.937   3.457
  185PC     H4A 8087   1.896   3.961   3.504
  185PC     H4B 8088   2.010   3.833   3.482
  185PC     H4C 8089   2.064   4.002   3.503
  185PC     C35 8090   1.994   4.092   3.261
  185PC     H5A 8091   1.945   4.126   3.170
  185PC     H5B 8092   2.074   4.154   3.299
  185PC     H5C 8093   1.918   4.125   3.326
  185PC     O33 8094   2.177   3.502   3.139
  185PC     O34 8095   1.923   3.482   3.130
  185PC     O21 8096   2.001   3.622   3.597
  185PC     C21 8097   1.919   3.600   3.699
  185PC     O22 8098   1.927   3.508   3.779
  186OL     C12 8099   1.810   3.706   3.697
  186OL     H2R 8100   1.747   3.688   3.607
  186OL     H2S 8101   1.860   3.805   3.687
  186OL     C13 8102   1.724   3.701   3.826
  186OL     H3R 8103   1.699   3.597   3.855
  186OL     H3S 8104   1.627   3.753   3.803
  186OL     C14 8105   1.789   3.772   3.946
  186OL     H4R 8106   1.816   3.869   3.907
  186OL     H4S 8107   1.886   3.725   3.973
  186OL     C15 8108   1.696   3.784   4.070
  186OL     H5R 8109   1.661   3.680   4.089
  186OL     H5S 8110   1.608   3.846   4.043
  186OL     C16 8111   1.759   3.834   4.204
  186OL     H6R 8112   1.794   3.937   4.210
  186OL     H6S 8113   1.849   3.777   4.228
  186OL     C17 8114   1.660   3.849   4.319
  186OL     H7R 8115   1.568   3.905   4.289
  186OL     H7S 8116   1.708   3.908   4.401
  186OL     C18 8117   1.620   3.714   4.368
  186OL     H8R 8118   1.563   3.664   4.288
  186OL     H8S 8119   1.557   3.733   4.454
  186OL     C19 8120   1.733   3.629   4.413
  186OL     H9R 8121   1.774   3.563   4.335
  186OL    C110 8122   1.777   3.625   4.540
  186OL    H10R 8123   1.853   3.550   4.564
  186OL    C111 8124   1.724   3.703   4.659
  186OL    H11R 8125   1.722   3.637   4.749
  186OL    H11S 8126   1.620   3.740   4.646
  186OL    C112 8127   1.816   3.823   4.686
  186OL    H12R 8128   1.765   3.894   4.754
  186OL    H12S 8129   1.837   3.879   4.592
  186OL    C113 8130   1.947   3.778   4.752
  186OL    H13R 8131   2.000   3.708   4.683
  186OL    H13S 8132   1.921   3.719   4.843
  186OL    C114 8133   2.047   3.889   4.792
  186OL    H14R 8134   2.090   3.933   4.699
  186OL    H14S 8135   2.130   3.838   4.846
  186OL    C115 8136   1.994   4.003   4.881
  186OL    H15R 8137   1.943   4.078   4.816
  186OL    H15S 8138   2.082   4.054   4.925
  186OL    C116 8139   1.896   3.959   4.994
  186OL    H16R 8140   1.902   3.849   5.007
  186OL    H16S 8141   1.793   3.988   4.965
  186OL    C117 8142   1.920   4.016   5.134
  186OL    H17R 8143   2.029   4.007   5.157
  186OL    H17S 8144   1.862   3.965   5.214
  186OL    C118 8145   1.885   4.162   5.137
  186OL    H18R 8146   1.789   4.198   5.097
  186OL    H18S 8147   1.959   4.188   5.060
  186OL    H18T 8148   1.908   4.209   5.235
  187PA    C116 8149   4.724   2.309   5.065
  187PA    H16R 8150   4.616   2.331   5.048
  187PA    H16S 8151   4.783   2.370   4.993
  187PA    H16T 8152   4.751   2.339   5.168
  187PA    C115 8153   4.748   2.161   5.039
  187PA    H15R 8154   4.852   2.136   5.062
  187PA    H15S 8155   4.685   2.098   5.106
  187PA    C114 8156   4.717   2.126   4.894
  187PA    H14R 8157   4.609   2.148   4.877
  187PA    H14S 8158   4.776   2.194   4.827
  187PA    C113 8159   4.748   1.981   4.858
  187PA    H13R 8160   4.858   1.972   4.842
  187PA    H13S 8161   4.721   1.915   4.944
  187PA    C112 8162   4.675   1.932   4.733
  187PA    H12R 8163   4.717   1.833   4.703
  187PA    H12S 8164   4.567   1.917   4.755
  187PA    C111 8165   4.688   2.030   4.615
  187PA    H11R 8166   4.650   2.130   4.645
  187PA    H11S 8167   4.795   2.041   4.588
  187PA    C110 8168   4.607   1.985   4.493
  187PA    H10R 8169   4.639   1.883   4.464
  187PA    H10S 8170   4.499   1.982   4.520
  187PA     C19 8171   4.629   2.080   4.376
  187PA     H9R 8172   4.552   2.161   4.376
  187PA     H9S 8173   4.728   2.130   4.388
  187PA     C18 8174   4.629   2.009   4.240
  187PA     H8R 8175   4.708   1.929   4.241
  187PA     H8S 8176   4.531   1.960   4.224
  187PA     C17 8177   4.659   2.109   4.129
  187PA     H7R 8178   4.582   2.189   4.133
  187PA     H7S 8179   4.758   2.156   4.148
  187PA     C16 8180   4.662   2.049   3.988
  187PA     H6R 8181   4.744   1.973   3.986
  187PA     H6S 8182   4.566   1.996   3.968
  187PA     C15 8183   4.689   2.152   3.878
  187PA     H5R 8184   4.620   2.238   3.889
  187PA     H5S 8185   4.791   2.194   3.891
  187PA     C14 8186   4.673   2.094   3.736
  187PA     H4R 8187   4.564   2.080   3.717
  187PA     H4S 8188   4.711   2.166   3.660
  187PA     C13 8189   4.742   1.958   3.720
  187PA     H3R 8190   4.850   1.971   3.743
  187PA     H3S 8191   4.700   1.886   3.794
  187PA     C12 8192   4.727   1.896   3.580
  187PA     H2R 8193   4.765   1.966   3.503
  187PA     H2S 8194   4.783   1.801   3.577
  188PC     C11 8195   4.581   1.863   3.551
  188PC     O12 8196   4.502   1.819   3.633
  188PC     O11 8197   4.558   1.877   3.421
  188PC      C1 8198   4.419   1.865   3.385
  188PC      HR 8199   4.413   1.829   3.280
  188PC      HS 8200   4.363   1.792   3.448
  188PC      C2 8201   4.346   2.001   3.397
  188PC      HX 8202   4.246   1.986   3.351
  188PC      C3 8203   4.423   2.113   3.319
  188PC      HA 8204   4.472   2.072   3.228
  188PC      HB 8205   4.349   2.184   3.280
  188PC     O31 8206   4.515   2.185   3.401
  188PC     P31 8207   4.544   2.338   3.372
  188PC     O32 8208   4.662   2.321   3.268
  188PC     C31 8209   4.796   2.301   3.313
  188PC     H1A 8210   4.861   2.374   3.261
  188PC     H1B 8211   4.808   2.322   3.422
  188PC     C32 8212   4.842   2.156   3.288
  188PC     H2A 8213   4.932   2.143   3.346
  188PC     H2B 8214   4.764   2.092   3.330
  188PC     N31 8215   4.869   2.115   3.143
  188PC     C33 8216   4.748   2.144   3.059
  188PC     H3A 8217   4.754   2.112   2.955
  188PC     H3B 8218   4.660   2.092   3.098
  188PC     H3C 8219   4.720   2.249   3.061
  188PC     C34 8220   4.985   2.195   3.096
  188PC     H4A 8221   4.986   2.289   3.150
  188PC     H4B 8222   5.077   2.143   3.116
  188PC     H4C 8223   4.973   2.222   2.992
  188PC     C35 8224   4.896   1.969   3.129
  188PC     H5A 8225   4.884   1.939   3.025
  188PC     H5B 8226   4.823   1.913   3.188
  188PC     H5C 8227   4.995   1.944   3.164
  188PC     O33 8228   4.425   2.398   3.308
  188PC     O34 8229   4.593   2.397   3.498
  188PC     O21 8230   4.334   2.027   3.538
  188PC     C21 8231   4.262   2.130   3.575
  188PC     O22 8232   4.183   2.189   3.503
  189OL     C12 8233   4.275   2.155   3.725
  189OL     H2R 8234   4.322   2.066   3.771
  189OL     H2S 8235   4.171   2.165   3.764
  189OL     C13 8236   4.359   2.282   3.755
  189OL     H3R 8237   4.314   2.370   3.704
  189OL     H3S 8238   4.460   2.267   3.711
  189OL     C14 8239   4.381   2.313   3.903
  189OL     H4R 8240   4.461   2.388   3.919
  189OL     H4S 8241   4.406   2.219   3.957
  189OL     C15 8242   4.256   2.368   3.967
  189OL     H5R 8243   4.201   2.271   3.969
  189OL     H5S 8244   4.202   2.439   3.900
  189OL     C16 8245   4.270   2.427   4.108
  189OL     H6R 8246   4.175   2.415   4.161
  189OL     H6S 8247   4.290   2.536   4.107
  189OL     C17 8248   4.358   2.350   4.205
  189OL     H7R 8249   4.464   2.378   4.191
  189OL     H7S 8250   4.345   2.242   4.179
  189OL     C18 8251   4.310   2.360   4.351
  189OL     H8R 8252   4.363   2.277   4.404
  189OL     H8S 8253   4.202   2.332   4.356
  189OL     C19 8254   4.322   2.488   4.429
  189OL     H9R 8255   4.298   2.582   4.376
  189OL    C110 8256   4.363   2.490   4.557
  189OL    H10R 8257   4.340   2.577   4.619
  189OL    C111 8258   4.403   2.378   4.646
  189OL    H11R 8259   4.474   2.415   4.724
  189OL    H11S 8260   4.457   2.301   4.588
  189OL    C112 8261   4.275   2.327   4.712
  189OL    H12R 8262   4.192   2.319   4.638
  189OL    H12S 8263   4.243   2.397   4.792
  189OL    C113 8264   4.295   2.189   4.771
  189OL    H13R 8265   4.381   2.194   4.842
  189OL    H13S 8266   4.324   2.119   4.689
  189OL    C114 8267   4.168   2.138   4.839
  189OL    H14R 8268   4.085   2.139   4.765
  189OL    H14S 8269   4.140   2.205   4.924
  189OL    C115 8270   4.186   1.996   4.893
  189OL    H15R 8271   4.221   1.932   4.809
  189OL    H15S 8272   4.089   1.956   4.928
  189OL    C116 8273   4.288   1.997   5.008
  189OL    H16R 8274   4.254   2.060   5.092
  189OL    H16S 8275   4.385   2.038   4.970
  189OL    C117 8276   4.326   1.860   5.058
  189OL    H17R 8277   4.365   1.814   4.964
  189OL    H17S 8278   4.236   1.805   5.095
  189OL    C118 8279   4.439   1.862   5.161
  189OL    H18R 8280   4.466   1.762   5.197
  189OL    H18S 8281   4.411   1.917   5.252
  189OL    H18T 8282   4.530   1.904   5.113
  190PA    C116 8283   3.158   0.236   5.289
  190PA    H16R 8284   3.106   0.222   5.194
  190PA    H16S 8285   3.064   0.238   5.342
  190PA    H16T 8286   3.208   0.152   5.341
  190PA    C115 8287   3.247   0.363   5.290
  190PA    H15R 8288   3.196   0.460   5.268
  190PA    H15S 8289   3.301   0.375   5.385
  190PA    C114 8290   3.339   0.345   5.179
  190PA    H14R 8291   3.406   0.263   5.212
  190PA    H14S 8292   3.271   0.312   5.096
  190PA    C113 8293   3.411   0.469   5.136
  190PA    H13R 8294   3.346   0.553   5.106
  190PA    H13S 8295   3.488   0.505   5.200
  190PA    C112 8296   3.514   0.428   5.039
  190PA    H12R 8297   3.594   0.506   5.031
  190PA    H12S 8298   3.561   0.335   5.080
  190PA    C111 8299   3.440   0.414   4.911
  190PA    H11R 8300   3.361   0.336   4.919
  190PA    H11S 8301   3.387   0.509   4.889
  190PA    C110 8302   3.543   0.380   4.809
  190PA    H10R 8303   3.635   0.440   4.823
  190PA    H10S 8304   3.579   0.280   4.834
  190PA     C19 8305   3.489   0.398   4.668
  190PA     H9R 8306   3.474   0.509   4.657
  190PA     H9S 8307   3.568   0.367   4.597
  190PA     C18 8308   3.355   0.330   4.636
  190PA     H8R 8309   3.360   0.220   4.638
  190PA     H8S 8310   3.277   0.363   4.709
  190PA     C17 8311   3.307   0.370   4.498
  190PA     H7R 8312   3.204   0.332   4.481
  190PA     H7S 8313   3.311   0.481   4.489
  190PA     C16 8314   3.384   0.309   4.386
  190PA     H6R 8315   3.493   0.326   4.400
  190PA     H6S 8316   3.369   0.198   4.387
  190PA     C15 8317   3.334   0.369   4.253
  190PA     H5R 8318   3.225   0.362   4.237
  190PA     H5S 8319   3.371   0.474   4.244
  190PA     C14 8320   3.399   0.292   4.144
  190PA     H4R 8321   3.493   0.291   4.200
  190PA     H4S 8322   3.361   0.188   4.137
  190PA     C13 8323   3.427   0.363   4.010
  190PA     H3R 8324   3.469   0.464   4.025
  190PA     H3S 8325   3.500   0.302   3.951
  190PA     C12 8326   3.308   0.364   3.922
  190PA     H2R 8327   3.256   0.277   3.957
  190PA     H2S 8328   3.229   0.429   3.951
  191PC     C11 8329   3.344   0.367   3.772
  191PC     O12 8330   3.450   0.402   3.725
  191PC     O11 8331   3.241   0.321   3.704
  191PC      C1 8332   3.236   0.351   3.564
  191PC      HR 8333   3.336   0.359   3.516
  191PC      HS 8334   3.181   0.269   3.511
  191PC      C2 8335   3.155   0.482   3.548
  191PC      HX 8336   3.049   0.458   3.573
  191PC      C3 8337   3.163   0.528   3.401
  191PC      HA 8338   3.141   0.442   3.334
  191PC      HB 8339   3.082   0.604   3.387
  191PC     O31 8340   3.293   0.578   3.373
  191PC     P31 8341   3.313   0.701   3.276
  191PC     O32 8342   3.411   0.642   3.167
  191PC     C31 8343   3.451   0.507   3.170
  191PC     H1A 8344   3.367   0.439   3.201
  191PC     H1B 8345   3.482   0.473   3.070
  191PC     C32 8346   3.565   0.492   3.271
  191PC     H2A 8347   3.521   0.508   3.369
  191PC     H2B 8348   3.586   0.387   3.260
  191PC     N31 8349   3.695   0.573   3.260
  191PC     C33 8350   3.756   0.553   3.125
  191PC     H3A 8351   3.752   0.448   3.100
  191PC     H3B 8352   3.699   0.605   3.049
  191PC     H3C 8353   3.859   0.587   3.121
  191PC     C34 8354   3.665   0.714   3.289
  191PC     H4A 8355   3.626   0.725   3.390
  191PC     H4B 8356   3.751   0.776   3.275
  191PC     H4C 8357   3.583   0.746   3.224
  191PC     C35 8358   3.797   0.544   3.363
  191PC     H5A 8359   3.879   0.613   3.365
  191PC     H5B 8360   3.838   0.446   3.345
  191PC     H5C 8361   3.751   0.539   3.462
  191PC     O33 8362   3.187   0.733   3.205
  191PC     O34 8363   3.385   0.810   3.346
  191PC     O21 8364   3.210   0.584   3.635
  191PC     C21 8365   3.130   0.685   3.667
  191PC     O22 8366   3.011   0.691   3.655
  192OL     C12 8367   3.201   0.798   3.738
  192OL     H2R 8368   3.169   0.797   3.843
  192OL     H2S 8369   3.162   0.891   3.692
  192OL     C13 8370   3.353   0.789   3.725
  192OL     H3R 8371   3.377   0.770   3.617
  192OL     H3S 8372   3.390   0.703   3.784
  192OL     C14 8373   3.421   0.920   3.764
  192OL     H4R 8374   3.370   1.004   3.711
  192OL     H4S 8375   3.526   0.918   3.727
  192OL     C15 8376   3.421   0.952   3.915
  192OL     H5R 8377   3.319   0.965   3.955
  192OL     H5S 8378   3.467   1.054   3.915
  192OL     C16 8379   3.502   0.856   4.007
  192OL     H6R 8380   3.457   0.755   4.013
  192OL     H6S 8381   3.505   0.902   4.109
  192OL     C17 8382   3.647   0.843   3.960
  192OL     H7R 8383   3.650   0.948   3.926
  192OL     H7S 8384   3.662   0.784   3.868
  192OL     C18 8385   3.758   0.813   4.064
  192OL     H8R 8386   3.742   0.873   4.154
  192OL     H8S 8387   3.858   0.844   4.023
  192OL     C19 8388   3.765   0.673   4.114
  192OL     H9R 8389   3.787   0.601   4.034
  192OL    C110 8390   3.749   0.632   4.242
  192OL    H10R 8391   3.750   0.523   4.259
  192OL    C111 8392   3.721   0.715   4.366
  192OL    H11R 8393   3.743   0.823   4.352
  192OL    H11S 8394   3.785   0.682   4.451
  192OL    C112 8395   3.573   0.702   4.410
  192OL    H12R 8396   3.552   0.597   4.439
  192OL    H12S 8397   3.510   0.725   4.321
  192OL    C113 8398   3.529   0.796   4.524
  192OL    H13R 8399   3.581   0.894   4.514
  192OL    H13S 8400   3.559   0.753   4.622
  192OL    C114 8401   3.377   0.818   4.518
  192OL    H14R 8402   3.328   0.720   4.532
  192OL    H14S 8403   3.353   0.852   4.415
  192OL    C115 8404   3.319   0.922   4.616
  192OL    H15R 8405   3.213   0.939   4.584
  192OL    H15S 8406   3.369   1.020   4.605
  192OL    C116 8407   3.321   0.884   4.765
  192OL    H16R 8408   3.269   0.963   4.823
  192OL    H16S 8409   3.424   0.870   4.803
  192OL    C117 8410   3.240   0.758   4.788
  192OL    H17R 8411   3.291   0.669   4.743
  192OL    H17S 8412   3.150   0.785   4.730
  192OL    C118 8413   3.192   0.728   4.929
  192OL    H18R 8414   3.278   0.711   4.995
  192OL    H18S 8415   3.129   0.637   4.932
  192OL    H18T 8416   3.130   0.813   4.966
  193PA    C116 8417   4.991   3.758   5.139
  193PA    H16R 8418   4.948   3.667   5.091
  193PA    H16S 8419   5.029   3.750   5.239
  193PA    H16T 8420   5.077   3.799   5.083
  193PA    C115 8421   4.890   3.846   5.186
  193PA    H15R 8422   4.823   3.796   5.259
  193PA    H15S 8423   4.954   3.923   5.237
  193PA    C114 8424   4.836   3.884   5.056
  193PA    H14R 8425   4.806   3.811   4.981
  193PA    H14S 8426   4.739   3.918   5.093
  193PA    C113 8427   4.946   3.974   4.999
  193PA    H13R 8428   4.910   4.050   5.062
  193PA    H13S 8429   5.046   3.989   5.046
  193PA    C112 8430   4.952   4.000   4.848
  193PA    H12R 8431   5.003   4.095   4.822
  193PA    H12S 8432   5.018   3.925   4.808
  193PA    C111 8433   4.825   3.980   4.767
  193PA    H11R 8434   4.799   3.874   4.766
  193PA    H11S 8435   4.733   4.023   4.806
  193PA    C110 8436   4.840   4.037   4.626
  193PA    H10R 8437   4.859   4.147   4.627
  193PA    H10S 8438   4.928   3.988   4.579
  193PA     C19 8439   4.710   4.008   4.552
  193PA     H9R 8440   4.689   3.899   4.563
  193PA     H9S 8441   4.628   4.065   4.602
  193PA     C18 8442   4.716   4.049   4.406
  193PA     H8R 8443   4.753   4.152   4.409
  193PA     H8S 8444   4.788   3.986   4.349
  193PA     C17 8445   4.580   4.059   4.336
  193PA     H7R 8446   4.528   3.962   4.340
  193PA     H7S 8447   4.519   4.134   4.391
  193PA     C16 8448   4.594   4.108   4.190
  193PA     H6R 8449   4.651   4.203   4.189
  193PA     H6S 8450   4.653   4.034   4.132
  193PA     C15 8451   4.458   4.131   4.125
  193PA     H5R 8452   4.394   4.040   4.129
  193PA     H5S 8453   4.404   4.213   4.180
  193PA     C14 8454   4.467   4.171   3.978
  193PA     H4R 8455   4.362   4.188   3.947
  193PA     H4S 8456   4.525   4.266   3.970
  193PA     C13 8457   4.527   4.063   3.887
  193PA     H3R 8458   4.628   4.035   3.923
  193PA     H3S 8459   4.461   3.974   3.890
  193PA     C12 8460   4.535   4.100   3.739
  193PA     H2R 8461   4.569   4.014   3.677
  193PA     H2S 8462   4.440   4.140   3.698
  194PC     C11 8463   4.639   4.203   3.714
  194PC     O12 8464   4.722   4.247   3.791
  194PC     O11 8465   4.615   4.239   3.589
  194PC      C1 8466   4.733   4.281   3.531
  194PC      HR 8467   4.723   4.333   3.433
  194PC      HS 8468   4.763   4.373   3.583
  194PC      C2 8469   4.839   4.160   3.512
  194PC      HX 8470   4.895   4.216   3.443
  194PC      C3 8471   4.790   4.053   3.420
  194PC      HA 8472   4.688   4.025   3.451
  194PC      HB 8473   4.793   4.103   3.318
  194PC     O31 8474   4.885   3.947   3.422
  194PC     P31 8475   4.873   3.846   3.303
  194PC     O32 8476   4.716   3.831   3.310
  194PC     C31 8477   4.636   3.837   3.194
  194PC     H1A 8478   4.570   3.926   3.203
  194PC     H1B 8479   4.696   3.850   3.101
  194PC     C32 8480   4.546   3.713   3.182
  194PC     H2A 8481   4.470   3.726   3.258
  194PC     H2B 8482   4.501   3.720   3.084
  194PC     N31 8483   4.602   3.572   3.199
  194PC     C33 8484   4.647   3.549   3.342
  194PC     H3A 8485   4.754   3.566   3.353
  194PC     H3B 8486   4.602   3.620   3.410
  194PC     H3C 8487   4.627   3.447   3.373
  194PC     C34 8488   4.495   3.471   3.172
  194PC     H4A 8489   4.539   3.375   3.143
  194PC     H4B 8490   4.438   3.456   3.262
  194PC     H4C 8491   4.431   3.504   3.091
  194PC     C35 8492   4.718   3.548   3.107
  194PC     H5A 8493   4.690   3.540   3.003
  194PC     H5B 8494   4.773   3.457   3.133
  194PC     H5C 8495   4.790   3.629   3.116
  194PC     O33 8496   4.916   3.915   3.179
  194PC     O34 8497   4.930   3.716   3.344
  194PC     O21 8498   4.887   4.102   3.644
  194PC     C21 8499   4.991   4.099   3.735
  194PC     O22 8500   5.097   4.152   3.748
  195OL     C12 8501   4.975   4.025   3.856
  195OL     H2R 8502   5.023   3.927   3.836
  195OL     H2S 8503   4.869   4.027   3.882
  195OL     C13 8504   5.058   4.101   3.965
  195OL     H3R 8505   5.046   4.211   3.964
  195OL     H3S 8506   5.169   4.092   3.965
  195OL     C14 8507   5.018   4.043   4.095
  195OL     H4R 8508   4.922   4.085   4.132
  195OL     H4S 8509   5.103   4.068   4.158
  195OL     C15 8510   5.004   3.895   4.091
  195OL     H5R 8511   5.071   3.852   4.014
  195OL     H5S 8512   4.897   3.879   4.064
  195OL     C16 8513   5.041   3.836   4.225
  195OL     H6R 8514   4.982   3.743   4.233
  195OL     H6S 8515   5.009   3.904   4.308
  195OL     C17 8516   5.192   3.805   4.230
  195OL     H7R 8517   5.253   3.898   4.236
  195OL     H7S 8518   5.218   3.758   4.133
  195OL     C18 8519   5.230   3.704   4.338
  195OL     H8R 8520   5.335   3.670   4.323
  195OL     H8S 8521   5.165   3.615   4.320
  195OL     C19 8522   5.214   3.754   4.479
  195OL     H9R 8523   5.289   3.825   4.518
  195OL    C110 8524   5.116   3.711   4.558
  195OL    H10R 8525   5.100   3.755   4.655
  195OL    C111 8526   5.011   3.611   4.526
  195OL    H11R 8527   5.053   3.513   4.497
  195OL    H11S 8528   4.944   3.647   4.445
  195OL    C112 8529   4.932   3.604   4.656
  195OL    H12R 8530   4.899   3.703   4.694
  195OL    H12S 8531   4.994   3.553   4.735
  195OL    C113 8532   4.807   3.526   4.642
  195OL    H13R 8533   4.849   3.426   4.628
  195OL    H13S 8534   4.736   3.551   4.560
  195OL    C114 8535   4.739   3.505   4.770
  195OL    H14R 8536   4.818   3.502   4.848
  195OL    H14S 8537   4.683   3.409   4.755
  195OL    C115 8538   4.649   3.612   4.816
  195OL    H15R 8539   4.552   3.590   4.766
  195OL    H15S 8540   4.692   3.709   4.787
  195OL    C116 8541   4.636   3.606   4.967
  195OL    H16R 8542   4.725   3.576   5.026
  195OL    H16S 8543   4.569   3.523   4.963
  195OL    C117 8544   4.544   3.710   5.026
  195OL    H17R 8545   4.589   3.808   5.009
  195OL    H17S 8546   4.541   3.701   5.137
  195OL    C118 8547   4.402   3.703   4.964
  195OL    H18R 8548   4.406   3.699   4.854
  195OL    H18S 8549   4.345   3.791   4.999
  195OL    H18T 8550   4.343   3.614   4.990
  196PA    C116 8551   3.634   4.339   4.932
  196PA    H16R 8552   3.587   4.241   4.916
  196PA    H16S 8553   3.633   4.362   5.041
  196PA    H16T 8554   3.739   4.331   4.899
  196PA    C115 8555   3.556   4.444   4.855
  196PA    H15R 8556   3.455   4.455   4.901
  196PA    H15S 8557   3.605   4.543   4.869
  196PA    C114 8558   3.544   4.409   4.706
  196PA    H14R 8559   3.511   4.303   4.694
  196PA    H14S 8560   3.464   4.471   4.661
  196PA    C113 8561   3.675   4.432   4.629
  196PA    H13R 8562   3.756   4.367   4.670
  196PA    H13S 8563   3.660   4.401   4.523
  196PA    C112 8564   3.721   4.578   4.631
  196PA    H12R 8565   3.749   4.609   4.735
  196PA    H12S 8566   3.813   4.589   4.569
  196PA    C111 8567   3.613   4.674   4.580
  196PA    H11R 8568   3.587   4.645   4.476
  196PA    H11S 8569   3.521   4.664   4.642
  196PA    C110 8570   3.653   4.822   4.588
  196PA    H10R 8571   3.650   4.854   4.694
  196PA    H10S 8572   3.756   4.836   4.552
  196PA     C19 8573   3.565   4.914   4.503
  196PA     H9R 8574   3.598   5.019   4.518
  196PA     H9S 8575   3.578   4.888   4.396
  196PA     C18 8576   3.417   4.906   4.536
  196PA     H8R 8577   3.377   4.802   4.529
  196PA     H8S 8578   3.399   4.942   4.640
  196PA     C17 8579   3.339   4.993   4.437
  196PA     H7R 8580   3.253   5.024   4.496
  196PA     H7S 8581   3.393   5.088   4.415
  196PA     C16 8582   3.306   4.912   4.309
  196PA     H6R 8583   3.401   4.874   4.267
  196PA     H6S 8584   3.242   4.828   4.338
  196PA     C15 8585   3.234   4.985   4.196
  196PA     H5R 8586   3.125   4.982   4.221
  196PA     H5S 8587   3.280   5.087   4.195
  196PA     C14 8588   3.246   4.943   4.051
  196PA     H4R 8589   3.227   4.835   4.043
  196PA     H4S 8590   3.166   4.997   3.994
  196PA     C13 8591   3.381   4.991   3.999
  196PA     H3R 8592   3.385   5.102   4.011
  196PA     H3S 8593   3.460   4.947   4.063
  196PA     C12 8594   3.406   4.958   3.851
  196PA     H2R 8595   3.385   4.851   3.832
  196PA     H2S 8596   3.341   5.020   3.790
  197PC     C11 8597   3.549   4.991   3.808
  197PC     O12 8598   3.620   5.076   3.857
  197PC     O11 8599   3.581   4.908   3.712
  197PC      C1 8600   3.720   4.911   3.673
  197PC      HR 8601   3.734   4.989   3.596
  197PC      HS 8602   3.789   4.936   3.758
  197PC      C2 8603   3.760   4.772   3.616
  197PC      HX 8604   3.869   4.772   3.595
  197PC      C3 8605   3.690   4.749   3.477
  197PC      HA 8606   3.604   4.820   3.471
  197PC      HB 8607   3.763   4.781   3.398
  197PC     O31 8608   3.643   4.615   3.453
  197PC     P31 8609   3.582   4.581   3.309
  197PC     O32 8610   3.429   4.553   3.344
  197PC     C31 8611   3.343   4.659   3.387
  197PC     H1A 8612   3.276   4.620   3.465
  197PC     H1B 8613   3.401   4.742   3.433
  197PC     C32 8614   3.260   4.722   3.272
  197PC     H2A 8615   3.194   4.795   3.319
  197PC     H2B 8616   3.332   4.780   3.213
  197PC     N31 8617   3.179   4.635   3.176
  197PC     C33 8618   3.102   4.720   3.081
  197PC     H3A 8619   3.168   4.782   3.021
  197PC     H3B 8620   3.046   4.656   3.014
  197PC     H3C 8621   3.033   4.786   3.132
  197PC     C34 8622   3.272   4.551   3.093
  197PC     H4A 8623   3.235   4.539   2.992
  197PC     H4B 8624   3.373   4.593   3.091
  197PC     H4C 8625   3.287   4.453   3.139
  197PC     C35 8626   3.083   4.544   3.248
  197PC     H5A 8627   3.025   4.595   3.323
  197PC     H5B 8628   3.139   4.466   3.300
  197PC     H5C 8629   3.011   4.495   3.182
  197PC     O33 8630   3.580   4.699   3.218
  197PC     O34 8631   3.640   4.457   3.254
  197PC     O21 8632   3.727   4.668   3.713
  197PC     C21 8633   3.811   4.656   3.815
  197PC     O22 8634   3.913   4.719   3.832
  198OL     C12 8635   3.760   4.548   3.910
  198OL     H2R 8636   3.843   4.525   3.980
  198OL     H2S 8637   3.740   4.457   3.849
  198OL     C13 8638   3.636   4.594   3.987
  198OL     H3R 8639   3.557   4.628   3.916
  198OL     H3S 8640   3.662   4.682   4.051
  198OL     C14 8641   3.584   4.484   4.080
  198OL     H4R 8642   3.660   4.456   4.155
  198OL     H4S 8643   3.556   4.394   4.021
  198OL     C15 8644   3.462   4.537   4.152
  198OL     H5R 8645   3.395   4.562   4.067
  198OL     H5S 8646   3.483   4.634   4.201
  198OL     C16 8647   3.397   4.445   4.256
  198OL     H6R 8648   3.464   4.430   4.343
  198OL     H6S 8649   3.375   4.344   4.213
  198OL     C17 8650   3.269   4.515   4.298
  198OL     H7R 8651   3.298   4.622   4.311
  198OL     H7S 8652   3.229   4.486   4.397
  198OL     C18 8653   3.172   4.515   4.179
  198OL     H8R 8654   3.121   4.417   4.166
  198OL     H8S 8655   3.221   4.514   4.082
  198OL     C19 8656   3.077   4.630   4.173
  198OL     H9R 8657   3.023   4.634   4.076
  198OL    C110 8658   3.023   4.696   4.279
  198OL    H10R 8659   2.927   4.742   4.249
  198OL    C111 8660   3.041   4.678   4.434
  198OL    H11R 8661   2.993   4.771   4.469
  198OL    H11S 8662   3.149   4.686   4.451
  198OL    C112 8663   2.995   4.579   4.554
  198OL    H12R 8664   2.991   4.472   4.524
  198OL    H12S 8665   2.892   4.608   4.587
  198OL    C113 8666   3.080   4.563   4.686
  198OL    H13R 8667   3.171   4.505   4.660
  198OL    H13S 8668   3.023   4.499   4.758
  198OL    C114 8669   3.120   4.692   4.761
  198OL    H14R 8670   3.030   4.738   4.807
  198OL    H14S 8671   3.160   4.762   4.685
  198OL    C115 8672   3.227   4.672   4.872
  198OL    H15R 8673   3.301   4.596   4.837
  198OL    H15S 8674   3.180   4.633   4.964
  198OL    C116 8675   3.309   4.800   4.905
  198OL    H16R 8676   3.241   4.885   4.923
  198OL    H16S 8677   3.370   4.824   4.815
  198OL    C117 8678   3.406   4.786   5.025
  198OL    H17R 8679   3.408   4.679   5.057
  198OL    H17S 8680   3.365   4.845   5.110
  198OL    C118 8681   3.550   4.832   4.999
  198OL    H18R 8682   3.617   4.804   5.084
  198OL    H18S 8683   3.554   4.942   4.988
  198OL    H18T 8684   3.592   4.785   4.908
  199PA    C116 8685   1.274   2.349   5.287
  199PA    H16R 8686   1.203   2.348   5.363
  199PA    H16S 8687   1.224   2.420   5.222
  199PA    H16T 8688   1.344   2.401   5.335
  199PA    C115 8689   1.323   2.216   5.240
  199PA    H15R 8690   1.411   2.176   5.295
  199PA    H15S 8691   1.252   2.131   5.251
  199PA    C114 8692   1.344   2.241   5.094
  199PA    H14R 8693   1.453   2.259   5.082
  199PA    H14S 8694   1.305   2.145   5.056
  199PA    C113 8695   1.259   2.330   5.004
  199PA    H13R 8696   1.237   2.431   5.042
  199PA    H13S 8697   1.322   2.349   4.914
  199PA    C112 8698   1.131   2.259   4.955
  199PA    H12R 8699   1.156   2.159   4.913
  199PA    H12S 8700   1.060   2.243   5.037
  199PA    C111 8701   1.057   2.340   4.848
  199PA    H11R 8702   1.022   2.435   4.895
  199PA    H11S 8703   1.130   2.364   4.768
  199PA    C110 8704   0.939   2.263   4.789
  199PA    H10R 8705   0.967   2.156   4.778
  199PA    H10S 8706   0.852   2.269   4.859
  199PA     C19 8707   0.894   2.314   4.651
  199PA     H9R 8708   0.865   2.421   4.661
  199PA     H9S 8709   0.981   2.310   4.582
  199PA     C18 8710   0.776   2.232   4.596
  199PA     H8R 8711   0.755   2.150   4.670
  199PA     H8S 8712   0.685   2.296   4.592
  199PA     C17 8713   0.796   2.163   4.459
  199PA     H7R 8714   0.883   2.094   4.470
  199PA     H7S 8715   0.707   2.102   4.437
  199PA     C16 8716   0.821   2.259   4.342
  199PA     H6R 8717   0.732   2.324   4.326
  199PA     H6S 8718   0.907   2.324   4.369
  199PA     C15 8719   0.856   2.192   4.207
  199PA     H5R 8720   0.763   2.157   4.155
  199PA     H5S 8721   0.903   2.270   4.143
  199PA     C14 8722   0.951   2.073   4.224
  199PA     H4R 8723   1.041   2.106   4.281
  199PA     H4S 8724   0.901   1.992   4.281
  199PA     C13 8725   1.000   2.012   4.093
  199PA     H3R 8726   1.063   1.924   4.121
  199PA     H3S 8727   0.915   1.972   4.033
  199PA     C12 8728   1.079   2.111   4.007
  199PA     H2R 8729   1.018   2.196   3.970
  199PA     H2S 8730   1.171   2.148   4.057
  200PC     C11 8731   1.117   2.028   3.892
  200PC     O12 8732   1.184   1.929   3.907
  200PC     O11 8733   1.051   2.072   3.784
  200PC      C1 8734   1.077   2.019   3.653
  200PC      HR 8735   1.130   2.093   3.588
  200PC      HS 8736   1.125   1.922   3.667
  200PC      C2 8737   0.976   1.948   3.565
  200PC      HX 8738   0.962   1.848   3.617
  200PC      C3 8739   1.021   1.907   3.423
  200PC      HA 8740   1.114   1.849   3.419
  200PC      HB 8741   0.942   1.834   3.393
  200PC     O31 8742   1.037   2.018   3.335
  200PC     P31 8743   1.013   1.992   3.180
  200PC     O32 8744   0.944   2.129   3.146
  200PC     C31 8745   1.004   2.252   3.187
  200PC     H1A 8746   1.066   2.245   3.279
  200PC     H1B 8747   1.065   2.289   3.103
  200PC     C32 8748   0.897   2.361   3.203
  200PC     H2A 8749   0.944   2.458   3.202
  200PC     H2B 8750   0.833   2.355   3.115
  200PC     N31 8751   0.813   2.355   3.326
  200PC     C33 8752   0.740   2.226   3.335
  200PC     H3A 8753   0.674   2.214   3.251
  200PC     H3B 8754   0.810   2.142   3.336
  200PC     H3C 8755   0.679   2.222   3.425
  200PC     C34 8756   0.896   2.382   3.448
  200PC     H4A 8757   0.958   2.296   3.471
  200PC     H4B 8758   0.960   2.468   3.432
  200PC     H4C 8759   0.833   2.405   3.532
  200PC     C35 8760   0.717   2.465   3.316
  200PC     H5A 8761   0.658   2.469   3.225
  200PC     H5B 8762   0.769   2.560   3.321
  200PC     H5C 8763   0.648   2.465   3.399
  200PC     O33 8764   1.144   1.981   3.109
  200PC     O34 8765   0.914   1.883   3.167
  200PC     O21 8766   0.869   2.041   3.562
  200PC     C21 8767   0.778   1.989   3.634
  200PC     O22 8768   0.760   1.870   3.655
  201OL     C12 8769   0.703   2.099   3.700
  201OL     H2R 8770   0.668   2.163   3.617
  201OL     H2S 8771   0.769   2.158   3.766
  201OL     C13 8772   0.593   2.021   3.769
  201OL     H3R 8773   0.552   1.941   3.703
  201OL     H3S 8774   0.501   2.073   3.791
  201OL     C14 8775   0.637   1.971   3.905
  201OL     H4R 8776   0.652   2.055   3.975
  201OL     H4S 8777   0.735   1.921   3.901
  201OL     C15 8778   0.528   1.879   3.958
  201OL     H5R 8779   0.541   1.781   3.907
  201OL     H5S 8780   0.427   1.917   3.931
  201OL     C16 8781   0.543   1.865   4.109
  201OL     H6R 8782   0.463   1.801   4.149
  201OL     H6S 8783   0.526   1.964   4.157
  201OL     C17 8784   0.682   1.810   4.143
  201OL     H7R 8785   0.754   1.894   4.139
  201OL     H7S 8786   0.713   1.739   4.064
  201OL     C18 8787   0.694   1.738   4.278
  201OL     H8R 8788   0.802   1.717   4.296
  201OL     H8S 8789   0.643   1.640   4.271
  201OL     C19 8790   0.635   1.823   4.388
  201OL     H9R 8791   0.579   1.912   4.355
  201OL    C110 8792   0.640   1.797   4.519
  201OL    H10R 8793   0.585   1.863   4.587
  201OL    C111 8794   0.704   1.680   4.585
  201OL    H11R 8795   0.739   1.600   4.515
  201OL    H11S 8796   0.624   1.637   4.647
  201OL    C112 8797   0.815   1.716   4.681
  201OL    H12R 8798   0.889   1.784   4.631
  201OL    H12S 8799   0.868   1.623   4.710
  201OL    C113 8800   0.759   1.784   4.806
  201OL    H13R 8801   0.679   1.721   4.851
  201OL    H13S 8802   0.713   1.881   4.778
  201OL    C114 8803   0.873   1.801   4.905
  201OL    H14R 8804   0.959   1.850   4.853
  201OL    H14S 8805   0.905   1.700   4.939
  201OL    C115 8806   0.839   1.883   5.028
  201OL    H15R 8807   0.925   1.877   5.100
  201OL    H15S 8808   0.750   1.840   5.078
  201OL    C116 8809   0.815   2.031   4.998
  201OL    H16R 8810   0.756   2.050   4.906
  201OL    H16S 8811   0.913   2.082   4.990
  201OL    C117 8812   0.742   2.092   5.114
  201OL    H17R 8813   0.795   2.185   5.145
  201OL    H17S 8814   0.755   2.015   5.194
  201OL    C118 8815   0.593   2.120   5.100
  201OL    H18R 8816   0.576   2.212   5.041
  201OL    H18S 8817   0.547   2.139   5.198
  201OL    H18T 8818   0.539   2.033   5.055
  202PA    C116 8819   4.958   2.654   5.248
  202PA    H16R 8820   5.055   2.611   5.224
  202PA    H16S 8821   4.887   2.594   5.193
  202PA    H16T 8822   4.959   2.611   5.350
  202PA    C115 8823   4.929   2.818   5.263
  202PA    H15R 8824   4.857   2.855   5.327
  202PA    H15S 8825   4.980   2.875   5.339
  202PA    C114 8826   4.941   2.917   5.151
  202PA    H14R 8827   4.929   3.022   5.189
  202PA    H14S 8828   5.033   2.927   5.092
  202PA    C113 8829   4.842   2.856   5.065
  202PA    H13R 8830   4.855   2.749   5.048
  202PA    H13S 8831   4.754   2.866   5.134
  202PA    C112 8832   4.842   2.935   4.939
  202PA    H12R 8833   4.746   2.922   4.887
  202PA    H12S 8834   4.849   3.033   4.988
  202PA    C111 8835   4.956   2.925   4.843
  202PA    H11R 8836   5.049   2.964   4.890
  202PA    H11S 8837   4.964   2.816   4.827
  202PA    C110 8838   4.924   2.993   4.708
  202PA    H10R 8839   4.977   2.932   4.633
  202PA    H10S 8840   4.815   2.991   4.688
  202PA     C19 8841   4.979   3.133   4.682
  202PA     H9R 8842   4.912   3.205   4.712
  202PA     H9S 8843   5.052   3.169   4.754
  202PA     C18 8844   4.939   3.209   4.554
  202PA     H8R 8845   4.986   3.310   4.565
  202PA     H8S 8846   4.989   3.164   4.469
  202PA     C17 8847   4.785   3.225   4.532
  202PA     H7R 8848   4.738   3.127   4.513
  202PA     H7S 8849   4.726   3.262   4.619
  202PA     C16 8850   4.758   3.330   4.423
  202PA     H6R 8851   4.653   3.368   4.423
  202PA     H6S 8852   4.828   3.417   4.429
  202PA     C15 8853   4.790   3.273   4.291
  202PA     H5R 8854   4.877   3.204   4.298
  202PA     H5S 8855   4.697   3.214   4.282
  202PA     C14 8856   4.816   3.380   4.184
  202PA     H4R 8857   4.742   3.462   4.194
  202PA     H4S 8858   4.919   3.417   4.200
  202PA     C13 8859   4.810   3.329   4.042
  202PA     H3R 8860   4.868   3.233   4.042
  202PA     H3S 8861   4.701   3.313   4.020
  202PA     C12 8862   4.864   3.416   3.927
  202PA     H2R 8863   4.816   3.515   3.938
  202PA     H2S 8864   4.974   3.421   3.938
  203PC     C11 8865   4.829   3.373   3.782
  203PC     O12 8866   4.715   3.353   3.742
  203PC     O11 8867   4.939   3.378   3.712
  203PC      C1 8868   4.939   3.344   3.571
  203PC      HR 8869   4.840   3.307   3.534
  203PC      HS 8870   4.966   3.435   3.512
  203PC      C2 8871   5.045   3.233   3.544
  203PC      HX 8872   5.140   3.267   3.592
  203PC      C3 8873   5.072   3.217   3.391
  203PC      HA 8874   5.065   3.317   3.342
  203PC      HB 8875   5.177   3.181   3.380
  203PC     O31 8876   4.983   3.126   3.326
  203PC     P31 8877   5.007   3.083   3.175
  203PC     O32 8878   5.145   3.007   3.191
  203PC     C31 8879   5.149   2.877   3.248
  203PC     H1A 8880   5.109   2.875   3.352
  203PC     H1B 8881   5.085   2.807   3.188
  203PC     C32 8882   5.295   2.825   3.242
  203PC     H2A 8883   5.293   2.720   3.271
  203PC     H2B 8884   5.322   2.828   3.136
  203PC     N31 8885   5.402   2.894   3.329
  203PC     C33 8886   5.352   2.890   3.471
  203PC     H3A 8887   5.265   2.955   3.479
  203PC     H3B 8888   5.317   2.791   3.497
  203PC     H3C 8889   5.426   2.922   3.542
  203PC     C34 8890   5.535   2.828   3.317
  203PC     H4A 8891   5.531   2.721   3.333
  203PC     H4B 8892   5.577   2.846   3.218
  203PC     H4C 8893   5.603   2.869   3.391
  203PC     C35 8894   5.422   3.038   3.289
  203PC     H5A 8895   5.333   3.097   3.309
  203PC     H5B 8896   5.440   3.048   3.183
  203PC     H5C 8897   5.506   3.080   3.344
  203PC     O33 8898   4.900   2.990   3.135
  203PC     O34 8899   5.028   3.205   3.093
  203PC     O21 8900   4.997   3.107   3.595
  203PC     C21 8901   5.048   3.055   3.704
  203PC     O22 8902   5.135   3.104   3.775
  204OL     C12 8903   4.985   2.916   3.724
  204OL     H2R 8904   5.014   2.853   3.638
  204OL     H2S 8905   4.875   2.927   3.718
  204OL     C13 8906   5.022   2.843   3.857
  204OL     H3R 8907   5.069   2.916   3.927
  204OL     H3S 8908   5.096   2.764   3.834
  204OL     C14 8909   4.901   2.776   3.927
  204OL     H4R 8910   4.860   2.696   3.861
  204OL     H4S 8911   4.816   2.841   3.928
  204OL     C15 8912   4.910   2.735   4.076
  204OL     H5R 8913   4.984   2.654   4.089
  204OL     H5S 8914   4.808   2.694   4.099
  204OL     C16 8915   4.931   2.846   4.182
  204OL     H6R 8916   4.877   2.820   4.276
  204OL     H6S 8917   4.889   2.942   4.147
  204OL     C17 8918   5.077   2.874   4.217
  204OL     H7R 8919   5.133   2.882   4.122
  204OL     H7S 8920   5.118   2.788   4.275
  204OL     C18 8921   5.097   3.004   4.296
  204OL     H8R 8922   5.050   2.990   4.396
  204OL     H8S 8923   5.046   3.089   4.247
  204OL     C19 8924   5.245   3.030   4.298
  204OL     H9R 8925   5.292   3.049   4.201
  204OL    C110 8926   5.316   3.046   4.408
  204OL    H10R 8927   5.424   3.071   4.403
  204OL    C111 8928   5.253   3.041   4.542
  204OL    H11R 8929   5.225   2.941   4.582
  204OL    H11S 8930   5.172   3.115   4.548
  204OL    C112 8931   5.349   3.098   4.635
  204OL    H12R 8932   5.389   3.192   4.589
  204OL    H12S 8933   5.431   3.023   4.646
  204OL    C113 8934   5.282   3.135   4.766
  204OL    H13R 8935   5.211   3.063   4.808
  204OL    H13S 8936   5.237   3.238   4.755
  204OL    C114 8937   5.394   3.141   4.857
  204OL    H14R 8938   5.417   3.250   4.854
  204OL    H14S 8939   5.472   3.075   4.817
  204OL    C115 8940   5.411   3.091   4.994
  204OL    H15R 8941   5.352   3.141   5.057
  204OL    H15S 8942   5.495   3.120   5.053
  204OL    C116 8943   5.352   2.982   5.043
  204OL    H16R 8944   5.413   2.902   4.996
  204OL    H16S 8945   5.248   2.987   5.003
  204OL    C117 8946   5.353   3.011   5.197
  204OL    H17R 8947   5.372   2.906   5.191
  204OL    H17S 8948   5.262   3.057   5.237
  204OL    C118 8949   5.452   3.051   5.299
  204OL    H18R 8950   5.466   2.993   5.389
  204OL    H18S 8951   5.534   3.119   5.308
  204OL    H18T 8952   5.522   3.040   5.216
  205PA    C116 8953   2.127   4.426   4.819
  205PA    H16R 8954   2.016   4.424   4.815
  205PA    H16S 8955   2.137   4.336   4.880
  205PA    H16T 8956   2.190   4.374   4.746
  205PA    C115 8957   2.182   4.559   4.879
  205PA    H15R 8958   2.143   4.642   4.819
  205PA    H15S 8959   2.145   4.585   4.981
  205PA    C114 8960   2.334   4.574   4.894
  205PA    H14R 8961   2.386   4.518   4.975
  205PA    H14S 8962   2.379   4.535   4.802
  205PA    C113 8963   2.366   4.715   4.941
  205PA    H13R 8964   2.317   4.787   4.875
  205PA    H13S 8965   2.324   4.728   5.043
  205PA    C112 8966   2.518   4.731   4.947
  205PA    H12R 8967   2.547   4.827   4.994
  205PA    H12S 8968   2.555   4.651   5.011
  205PA    C111 8969   2.579   4.715   4.808
  205PA    H11R 8970   2.690   4.715   4.816
  205PA    H11S 8971   2.553   4.617   4.763
  205PA    C110 8972   2.526   4.824   4.715
  205PA    H10R 8973   2.416   4.819   4.706
  205PA    H10S 8974   2.553   4.924   4.756
  205PA     C19 8975   2.583   4.804   4.576
  205PA     H9R 8976   2.687   4.841   4.583
  205PA     H9S 8977   2.588   4.694   4.555
  205PA     C18 8978   2.507   4.870   4.461
  205PA     H8R 8979   2.448   4.793   4.405
  205PA     H8S 8980   2.430   4.945   4.494
  205PA     C17 8981   2.605   4.942   4.367
  205PA     H7R 8982   2.698   5.001   4.369
  205PA     H7S 8983   2.602   5.015   4.451
  205PA     C16 8984   2.543   4.969   4.230
  205PA     H6R 8985   2.442   5.011   4.245
  205PA     H6S 8986   2.603   5.049   4.181
  205PA     C15 8987   2.540   4.850   4.128
  205PA     H5R 8988   2.593   4.881   4.035
  205PA     H5S 8989   2.587   4.758   4.167
  205PA     C14 8990   2.397   4.813   4.087
  205PA     H4R 8991   2.343   4.760   4.168
  205PA     H4S 8992   2.355   4.914   4.086
  205PA     C13 8993   2.370   4.744   3.952
  205PA     H3R 8994   2.261   4.722   3.946
  205PA     H3S 8995   2.392   4.809   3.864
  205PA     C12 8996   2.449   4.613   3.937
  205PA     H2R 8997   2.556   4.637   3.920
  205PA     H2S 8998   2.439   4.555   4.031
  206PC     C11 8999   2.400   4.528   3.821
  206PC     O12 9000   2.316   4.562   3.739
  206PC     O11 9001   2.466   4.414   3.821
  206PC      C1 9002   2.456   4.336   3.700
  206PC      HR 9003   2.510   4.240   3.717
  206PC      HS 9004   2.351   4.311   3.677
  206PC      C2 9005   2.522   4.409   3.578
  206PC      HX 9006   2.488   4.515   3.578
  206PC      C3 9007   2.482   4.349   3.442
  206PC      HA 9008   2.507   4.240   3.440
  206PC      HB 9009   2.372   4.359   3.432
  206PC     O31 9010   2.552   4.419   3.339
  206PC     P31 9011   2.534   4.400   3.183
  206PC     O32 9012   2.422   4.509   3.153
  206PC     C31 9013   2.298   4.509   3.221
  206PC     H1A 9014   2.220   4.542   3.152
  206PC     H1B 9015   2.267   4.405   3.249
  206PC     C32 9016   2.301   4.600   3.347
  206PC     H2A 9017   2.199   4.607   3.383
  206PC     H2B 9018   2.359   4.545   3.421
  206PC     N31 9019   2.358   4.742   3.340
  206PC     C33 9020   2.275   4.825   3.248
  206PC     H3A 9021   2.169   4.818   3.272
  206PC     H3B 9022   2.300   4.931   3.256
  206PC     H3C 9023   2.292   4.792   3.146
  206PC     C34 9024   2.355   4.802   3.477
  206PC     H4A 9025   2.253   4.821   3.509
  206PC     H4B 9026   2.401   4.735   3.550
  206PC     H4C 9027   2.408   4.897   3.480
  206PC     C35 9028   2.500   4.744   3.292
  206PC     H5A 9029   2.565   4.690   3.360
  206PC     H5B 9030   2.536   4.845   3.279
  206PC     H5C 9031   2.506   4.691   3.197
  206PC     O33 9032   2.659   4.441   3.117
  206PC     O34 9033   2.485   4.262   3.159
  206PC     O21 9034   2.664   4.402   3.587
  206PC     C21 9035   2.731   4.514   3.609
  206PC     O22 9036   2.684   4.625   3.627
  207OL     C12 9037   2.876   4.479   3.627
  207OL     H2R 9038   2.940   4.557   3.672
  207OL     H2S 9039   2.922   4.440   3.533
  207OL     C13 9040   2.872   4.365   3.723
  207OL     H3R 9041   2.973   4.341   3.755
  207OL     H3S 9042   2.829   4.283   3.661
  207OL     C14 9043   2.806   4.378   3.858
  207OL     H4R 9044   2.824   4.285   3.909
  207OL     H4S 9045   2.696   4.378   3.863
  207OL     C15 9046   2.893   4.435   3.967
  207OL     H5R 9047   2.891   4.541   3.940
  207OL     H5S 9048   2.998   4.395   3.955
  207OL     C16 9049   2.833   4.380   4.100
  207OL     H6R 9050   2.874   4.279   4.112
  207OL     H6S 9051   2.723   4.382   4.096
  207OL     C17 9052   2.875   4.441   4.229
  207OL     H7R 9053   2.875   4.534   4.172
  207OL     H7S 9054   2.969   4.397   4.271
  207OL     C18 9055   2.793   4.506   4.339
  207OL     H8R 9056   2.817   4.609   4.363
  207OL     H8S 9057   2.832   4.451   4.426
  207OL     C19 9058   2.648   4.511   4.335
  207OL     H9R 9059   2.601   4.604   4.302
  207OL    C110 9060   2.583   4.405   4.378
  207OL    H10R 9061   2.474   4.402   4.375
  207OL    C111 9062   2.660   4.287   4.426
  207OL    H11R 9063   2.757   4.275   4.371
  207OL    H11S 9064   2.594   4.203   4.400
  207OL    C112 9065   2.720   4.265   4.563
  207OL    H12R 9066   2.802   4.336   4.585
  207OL    H12S 9067   2.766   4.163   4.563
  207OL    C113 9068   2.608   4.271   4.661
  207OL    H13R 9069   2.526   4.203   4.631
  207OL    H13S 9070   2.569   4.375   4.669
  207OL    C114 9071   2.662   4.225   4.790
  207OL    H14R 9072   2.757   4.281   4.811
  207OL    H14S 9073   2.692   4.119   4.786
  207OL    C115 9074   2.555   4.240   4.897
  207OL    H15R 9075   2.483   4.156   4.897
  207OL    H15S 9076   2.506   4.340   4.897
  207OL    C116 9077   2.633   4.223   5.020
  207OL    H16R 9078   2.718   4.292   5.011
  207OL    H16S 9079   2.700   4.146   4.986
  207OL    C117 9080   2.547   4.198   5.152
  207OL    H17R 9081   2.467   4.126   5.132
  207OL    H17S 9082   2.502   4.289   5.178
  207OL    C118 9083   2.602   4.168   5.293
  207OL    H18R 9084   2.548   4.205   5.380
  207OL    H18S 9085   2.699   4.216   5.294
  207OL    H18T 9086   2.625   4.064   5.316
  208PA    C116 9087   1.910   0.890   5.089
  208PA    H16R 9088   1.997   0.870   5.023
  208PA    H16S 9089   1.939   0.871   5.195
  208PA    H16T 9090   1.882   0.997   5.079
  208PA    C115 9091   1.793   0.801   5.053
  208PA    H15R 9092   1.728   0.805   5.142
  208PA    H15S 9093   1.734   0.845   4.969
  208PA    C114 9094   1.833   0.658   5.011
  208PA    H14R 9095   1.900   0.672   4.923
  208PA    H14S 9096   1.893   0.610   5.092
  208PA    C113 9097   1.712   0.571   4.971
  208PA    H13R 9098   1.667   0.535   5.064
  208PA    H13S 9099   1.638   0.636   4.922
  208PA    C112 9100   1.729   0.445   4.883
  208PA    H12R 9101   1.763   0.360   4.945
  208PA    H12S 9102   1.629   0.417   4.842
  208PA    C111 9103   1.824   0.475   4.767
  208PA    H11R 9104   1.785   0.563   4.713
  208PA    H11S 9105   1.922   0.500   4.813
  208PA    C110 9106   1.850   0.363   4.667
  208PA    H10R 9107   1.930   0.302   4.708
  208PA    H10S 9108   1.763   0.297   4.645
  208PA     C19 9109   1.936   0.402   4.549
  208PA     H9R 9110   2.022   0.461   4.589
  208PA     H9S 9111   1.977   0.310   4.501
  208PA     C18 9112   1.860   0.483   4.449
  208PA     H8R 9113   1.775   0.422   4.410
  208PA     H8S 9114   1.817   0.572   4.499
  208PA     C17 9115   1.952   0.529   4.338
  208PA     H7R 9116   2.031   0.593   4.384
  208PA     H7S 9117   2.003   0.443   4.289
  208PA     C16 9118   1.871   0.611   4.240
  208PA     H6R 9119   1.803   0.677   4.299
  208PA     H6S 9120   1.938   0.677   4.180
  208PA     C15 9121   1.786   0.526   4.146
  208PA     H5R 9122   1.853   0.463   4.083
  208PA     H5S 9123   1.721   0.457   4.204
  208PA     C14 9124   1.699   0.618   4.061
  208PA     H4R 9125   1.606   0.641   4.118
  208PA     H4S 9126   1.751   0.714   4.042
  208PA     C13 9127   1.664   0.560   3.926
  208PA     H3R 9128   1.598   0.633   3.873
  208PA     H3S 9129   1.756   0.545   3.864
  208PA     C12 9130   1.593   0.426   3.940
  208PA     H2R 9131   1.652   0.350   3.995
  208PA     H2S 9132   1.497   0.444   3.991
  209PC     C11 9133   1.571   0.373   3.800
  209PC     O12 9134   1.614   0.268   3.759
  209PC     O11 9135   1.500   0.465   3.734
  209PC      C1 9136   1.450   0.442   3.601
  209PC      HR 9137   1.493   0.352   3.553
  209PC      HS 9138   1.339   0.445   3.601
  209PC      C2 9139   1.499   0.539   3.493
  209PC      HX 9140   1.462   0.500   3.394
  209PC      C3 9141   1.652   0.525   3.498
  209PC      HA 9142   1.686   0.549   3.601
  209PC      HB 9143   1.675   0.415   3.481
  209PC     O31 9144   1.715   0.607   3.400
  209PC     P31 9145   1.867   0.573   3.377
  209PC     O32 9146   1.902   0.698   3.285
  209PC     C31 9147   1.848   0.825   3.325
  209PC     H1A 9148   1.843   0.837   3.437
  209PC     H1B 9149   1.917   0.904   3.290
  209PC     C32 9150   1.706   0.852   3.270
  209PC     H2A 9151   1.643   0.773   3.314
  209PC     H2B 9152   1.672   0.945   3.313
  209PC     N31 9153   1.684   0.855   3.120
  209PC     C33 9154   1.685   0.715   3.066
  209PC     H3A 9155   1.623   0.650   3.127
  209PC     H3B 9156   1.654   0.709   2.962
  209PC     H3C 9157   1.786   0.676   3.073
  209PC     C34 9158   1.555   0.923   3.092
  209PC     H4A 9159   1.542   0.932   2.984
  209PC     H4B 9160   1.475   0.862   3.133
  209PC     H4C 9161   1.555   1.022   3.134
  209PC     C35 9162   1.790   0.929   3.047
  209PC     H5A 9163   1.767   0.933   2.940
  209PC     H5B 9164   1.882   0.874   3.061
  209PC     H5C 9165   1.800   1.031   3.081
  209PC     O33 9166   1.937   0.578   3.507
  209PC     O34 9167   1.871   0.446   3.301
  209PC     O21 9168   1.448   0.668   3.523
  209PC     C21 9169   1.402   0.743   3.427
  209PC     O22 9170   1.408   0.724   3.306
  210OL     C12 9171   1.330   0.856   3.496
  210OL     H2R 9172   1.247   0.813   3.558
  210OL     H2S 9173   1.287   0.925   3.421
  210OL     C13 9174   1.423   0.928   3.593
  210OL     H3R 9175   1.518   0.962   3.546
  210OL     H3S 9176   1.451   0.862   3.679
  210OL     C14 9177   1.349   1.044   3.655
  210OL     H4R 9178   1.248   1.019   3.694
  210OL     H4S 9179   1.334   1.125   3.578
  210OL     C15 9180   1.434   1.097   3.768
  210OL     H5R 9181   1.385   1.189   3.801
  210OL     H5S 9182   1.535   1.114   3.724
  210OL     C16 9183   1.444   1.028   3.904
  210OL     H6R 9184   1.502   1.093   3.974
  210OL     H6S 9185   1.498   0.932   3.899
  210OL     C17 9186   1.309   1.012   3.970
  210OL     H7R 9187   1.243   0.954   3.902
  210OL     H7S 9188   1.260   1.112   3.982
  210OL     C18 9189   1.324   0.932   4.099
  210OL     H8R 9190   1.386   0.839   4.090
  210OL     H8S 9191   1.219   0.908   4.126
  210OL     C19 9192   1.369   1.015   4.211
  210OL     H9R 9193   1.284   1.082   4.237
  210OL    C110 9194   1.494   1.025   4.268
  210OL    H10R 9195   1.520   1.095   4.350
  210OL    C111 9196   1.615   0.946   4.250
  210OL    H11R 9197   1.693   1.013   4.205
  210OL    H11S 9198   1.596   0.858   4.185
  210OL    C112 9199   1.649   0.922   4.399
  210OL    H12R 9200   1.680   1.016   4.453
  210OL    H12S 9201   1.737   0.855   4.406
  210OL    C113 9202   1.533   0.862   4.482
  210OL    H13R 9203   1.490   0.779   4.422
  210OL    H13S 9204   1.449   0.933   4.502
  210OL    C114 9205   1.577   0.814   4.619
  210OL    H14R 9206   1.629   0.894   4.676
  210OL    H14S 9207   1.648   0.729   4.604
  210OL    C115 9208   1.460   0.770   4.705
  210OL    H15R 9209   1.384   0.848   4.726
  210OL    H15S 9210   1.502   0.730   4.800
  210OL    C116 9211   1.388   0.654   4.647
  210OL    H16R 9212   1.476   0.589   4.626
  210OL    H16S 9213   1.338   0.672   4.549
  210OL    C117 9214   1.288   0.606   4.755
  210OL    H17R 9215   1.205   0.547   4.714
  210OL    H17S 9216   1.228   0.690   4.794
  210OL    C118 9217   1.347   0.518   4.864
  210OL    H18R 9218   1.387   0.424   4.824
  210OL    H18S 9219   1.263   0.489   4.931
  210OL    H18T 9220   1.432   0.559   4.920
  211PA    C116 9221   4.544   4.391   5.409
  211PA    H16R 9222   4.533   4.334   5.500
  211PA    H16S 9223   4.597   4.324   5.344
  211PA    H16T 9224   4.462   4.356   5.346
  211PA    C115 9225   4.558   4.554   5.422
  211PA    H15R 9226   4.491   4.575   5.507
  211PA    H15S 9227   4.661   4.570   5.454
  211PA    C114 9228   4.522   4.679   5.316
  211PA    H14R 9229   4.601   4.706   5.246
  211PA    H14S 9230   4.489   4.593   5.279
  211PA    C113 9231   4.388   4.760   5.256
  211PA    H13R 9232   4.298   4.704   5.240
  211PA    H13S 9233   4.337   4.816   5.337
  211PA    C112 9234   4.364   4.795   5.103
  211PA    H12R 9235   4.411   4.893   5.089
  211PA    H12S 9236   4.387   4.729   5.019
  211PA    C111 9237   4.213   4.796   5.073
  211PA    H11R 9238   4.145   4.712   5.103
  211PA    H11S 9239   4.221   4.862   5.159
  211PA    C110 9240   4.153   4.873   4.956
  211PA    H10R 9241   4.051   4.915   4.974
  211PA    H10S 9242   4.219   4.959   4.933
  211PA     C19 9243   4.131   4.774   4.848
  211PA     H9R 9244   4.229   4.726   4.831
  211PA     H9S 9245   4.062   4.693   4.880
  211PA     C18 9246   4.084   4.839   4.721
  211PA     H8R 9247   3.979   4.875   4.733
  211PA     H8S 9248   4.149   4.927   4.698
  211PA     C17 9249   4.097   4.730   4.616
  211PA     H7R 9250   4.205   4.703   4.606
  211PA     H7S 9251   4.043   4.640   4.653
  211PA     C16 9252   4.040   4.769   4.480
  211PA     H6R 9253   3.930   4.771   4.493
  211PA     H6S 9254   4.073   4.870   4.451
  211PA     C15 9255   4.067   4.664   4.372
  211PA     H5R 9256   4.035   4.565   4.410
  211PA     H5S 9257   4.002   4.691   4.285
  211PA     C14 9258   4.210   4.650   4.319
  211PA     H4R 9259   4.244   4.747   4.276
  211PA     H4S 9260   4.282   4.621   4.398
  211PA     C13 9261   4.207   4.543   4.209
  211PA     H3R 9262   4.192   4.442   4.255
  211PA     H3S 9263   4.117   4.564   4.145
  211PA     C12 9264   4.329   4.539   4.116
  211PA     H2R 9265   4.354   4.640   4.080
  211PA     H2S 9266   4.416   4.495   4.168
  212PC     C11 9267   4.294   4.456   3.992
  212PC     O12 9268   4.191   4.393   3.974
  212PC     O11 9269   4.398   4.458   3.911
  212PC      C1 9270   4.375   4.388   3.787
  212PC      HR 9271   4.475   4.361   3.753
  212PC      HS 9272   4.311   4.298   3.794
  212PC      C2 9273   4.321   4.473   3.674
  212PC      HX 9274   4.214   4.497   3.697
  212PC      C3 9275   4.323   4.389   3.543
  212PC      HA 9276   4.416   4.330   3.537
  212PC      HB 9277   4.240   4.314   3.546
  212PC     O31 9278   4.318   4.474   3.427
  212PC     P31 9279   4.172   4.531   3.396
  212PC     O32 9280   4.201   4.601   3.256
  212PC     C31 9281   4.282   4.718   3.251
  212PC     H1A 9282   4.256   4.775   3.159
  212PC     H1B 9283   4.260   4.787   3.336
  212PC     C32 9284   4.432   4.681   3.252
  212PC     H2A 9285   4.487   4.771   3.270
  212PC     H2B 9286   4.443   4.617   3.340
  212PC     N31 9287   4.485   4.609   3.128
  212PC     C33 9288   4.415   4.476   3.114
  212PC     H3A 9289   4.432   4.416   3.202
  212PC     H3B 9290   4.307   4.489   3.114
  212PC     H3C 9291   4.442   4.423   3.023
  212PC     C34 9292   4.457   4.690   3.005
  212PC     H4A 9293   4.355   4.668   2.973
  212PC     H4B 9294   4.465   4.795   3.028
  212PC     H4C 9295   4.521   4.666   2.922
  212PC     C35 9296   4.629   4.575   3.139
  212PC     H5A 9297   4.658   4.516   3.052
  212PC     H5B 9298   4.642   4.513   3.226
  212PC     H5C 9299   4.692   4.662   3.146
  212PC     O33 9300   4.084   4.415   3.376
  212PC     O34 9301   4.133   4.636   3.492
  212PC     O21 9302   4.404   4.589   3.658
  212PC     C21 9303   4.367   4.688   3.737
  212PC     O22 9304   4.274   4.689   3.815
  213OL     C12 9305   4.465   4.803   3.719
  213OL     H2R 9306   4.407   4.884   3.670
  213OL     H2S 9307   4.548   4.772   3.653
  213OL     C13 9308   4.518   4.853   3.855
  213OL     H3R 9309   4.433   4.862   3.927
  213OL     H3S 9310   4.561   4.954   3.839
  213OL     C14 9311   4.630   4.765   3.913
  213OL     H4R 9312   4.714   4.766   3.840
  213OL     H4S 9313   4.596   4.659   3.922
  213OL     C15 9314   4.683   4.818   4.049
  213OL     H5R 9315   4.728   4.918   4.030
  213OL     H5S 9316   4.765   4.755   4.086
  213OL     C16 9317   4.579   4.828   4.162
  213OL     H6R 9318   4.521   4.734   4.168
  213OL     H6S 9319   4.508   4.910   4.136
  213OL     C17 9320   4.635   4.858   4.303
  213OL     H7R 9321   4.549   4.868   4.373
  213OL     H7S 9322   4.686   4.955   4.300
  213OL     C18 9323   4.734   4.756   4.363
  213OL     H8R 9324   4.751   4.787   4.469
  213OL     H8S 9325   4.833   4.770   4.313
  213OL     C19 9326   4.695   4.612   4.352
  213OL     H9R 9327   4.682   4.577   4.249
  213OL    C110 9328   4.662   4.528   4.451
  213OL    H10R 9329   4.645   4.421   4.429
  213OL    C111 9330   4.659   4.565   4.595
  213OL    H11R 9331   4.726   4.649   4.622
  213OL    H11S 9332   4.693   4.478   4.656
  213OL    C112 9333   4.514   4.606   4.626
  213OL    H12R 9334   4.444   4.522   4.603
  213OL    H12S 9335   4.480   4.696   4.571
  213OL    C113 9336   4.500   4.631   4.772
  213OL    H13R 9337   4.410   4.687   4.801
  213OL    H13S 9338   4.586   4.692   4.810
  213OL    C114 9339   4.496   4.492   4.833
  213OL    H14R 9340   4.531   4.536   4.927
  213OL    H14S 9341   4.580   4.431   4.802
  213OL    C115 9342   4.362   4.406   4.828
  213OL    H15R 9343   4.337   4.381   4.725
  213OL    H15S 9344   4.285   4.479   4.865
  213OL    C116 9345   4.343   4.272   4.916
  213OL    H16R 9346   4.368   4.273   5.024
  213OL    H16S 9347   4.414   4.193   4.890
  213OL    C117 9348   4.195   4.236   4.941
  213OL    H17R 9349   4.158   4.191   4.847
  213OL    H17S 9350   4.137   4.329   4.962
  213OL    C118 9351   4.168   4.140   5.060
  213OL    H18R 9352   4.175   4.190   5.158
  213OL    H18S 9353   4.240   4.056   5.062
  213OL    H18T 9354   4.065   4.101   5.054
  214PA    C116 9355   5.167   1.365   5.085
  214PA    H16R 9356   5.257   1.422   5.116
  214PA    H16S 9357   5.179   1.332   4.980
  214PA    H16T 9358   5.164   1.274   5.146
  214PA    C115 9359   5.042   1.451   5.104
  214PA    H15R 9360   4.949   1.393   5.085
  214PA    H15S 9361   5.037   1.484   5.210
  214PA    C114 9362   5.044   1.577   5.016
  214PA    H14R 9363   4.959   1.643   5.045
  214PA    H14S 9364   5.139   1.631   5.038
  214PA    C113 9365   5.038   1.553   4.865
  214PA    H13R 9366   5.035   1.650   4.810
  214PA    H13S 9367   5.129   1.499   4.832
  214PA    C112 9368   4.919   1.469   4.819
  214PA    H12R 9369   4.938   1.439   4.714
  214PA    H12S 9370   4.909   1.377   4.880
  214PA    C111 9371   4.787   1.542   4.823
  214PA    H11R 9372   4.762   1.583   4.924
  214PA    H11S 9373   4.785   1.629   4.752
  214PA    C110 9374   4.680   1.443   4.782
  214PA    H10R 9375   4.669   1.359   4.853
  214PA    H10S 9376   4.591   1.504   4.789
  214PA     C19 9377   4.695   1.383   4.642
  214PA     H9R 9378   4.676   1.464   4.567
  214PA     H9S 9379   4.794   1.341   4.620
  214PA     C18 9380   4.594   1.269   4.627
  214PA     H8R 9381   4.561   1.210   4.714
  214PA     H8S 9382   4.514   1.339   4.635
  214PA     C17 9383   4.604   1.185   4.496
  214PA     H7R 9384   4.630   1.257   4.414
  214PA     H7S 9385   4.685   1.113   4.513
  214PA     C16 9386   4.481   1.105   4.446
  214PA     H6R 9387   4.417   1.062   4.527
  214PA     H6S 9388   4.428   1.188   4.399
  214PA     C15 9389   4.486   1.021   4.320
  214PA     H5R 9390   4.546   0.932   4.347
  214PA     H5S 9391   4.383   0.985   4.295
  214PA     C14 9392   4.548   1.095   4.199
  214PA     H4R 9393   4.646   1.134   4.233
  214PA     H4S 9394   4.565   1.020   4.119
  214PA     C13 9395   4.471   1.210   4.130
  214PA     H3R 9396   4.367   1.176   4.111
  214PA     H3S 9397   4.472   1.303   4.192
  214PA     C12 9398   4.515   1.241   3.988
  214PA     H2R 9399   4.510   1.147   3.928
  214PA     H2S 9400   4.448   1.317   3.942
  215PC     C11 9401   4.656   1.295   3.984
  215PC     O12 9402   4.731   1.309   4.079
  215PC     O11 9403   4.681   1.323   3.860
  215PC      C1 9404   4.817   1.352   3.825
  215PC      HR 9405   4.824   1.457   3.793
  215PC      HS 9406   4.888   1.338   3.909
  215PC      C2 9407   4.855   1.262   3.705
  215PC      HX 9408   4.956   1.289   3.667
  215PC      C3 9409   4.753   1.278   3.591
  215PC      HA 9410   4.650   1.273   3.634
  215PC      HB 9411   4.765   1.379   3.548
  215PC     O31 9412   4.762   1.172   3.495
  215PC     P31 9413   4.864   1.173   3.376
  215PC     O32 9414   4.906   1.327   3.368
  215PC     C31 9415   4.830   1.421   3.293
  215PC     H1A 9416   4.721   1.394   3.289
  215PC     H1B 9417   4.833   1.520   3.343
  215PC     C32 9418   4.888   1.430   3.151
  215PC     H2A 9419   4.891   1.328   3.114
  215PC     H2B 9420   4.817   1.486   3.091
  215PC     N31 9421   5.026   1.494   3.137
  215PC     C33 9422   5.051   1.524   2.995
  215PC     H3A 9423   5.064   1.431   2.940
  215PC     H3B 9424   4.967   1.575   2.950
  215PC     H3C 9425   5.138   1.586   2.979
  215PC     C34 9426   5.033   1.620   3.217
  215PC     H4A 9427   5.127   1.671   3.206
  215PC     H4B 9428   4.952   1.685   3.189
  215PC     H4C 9429   5.020   1.593   3.322
  215PC     C35 9430   5.137   1.404   3.181
  215PC     H5A 9431   5.148   1.318   3.116
  215PC     H5B 9432   5.117   1.365   3.281
  215PC     H5C 9433   5.231   1.458   3.182
  215PC     O33 9434   4.983   1.091   3.401
  215PC     O34 9435   4.784   1.148   3.254
  215PC     O21 9436   4.851   1.125   3.741
  215PC     C21 9437   4.941   1.089   3.824
  215PC     O22 9438   5.030   1.157   3.874
  216OL     C12 9439   4.916   0.948   3.861
  216OL     H2R 9440   5.014   0.908   3.839
  216OL     H2S 9441   4.846   0.895   3.793
  216OL     C13 9442   4.879   0.947   4.009
  216OL     H3R 9443   4.792   1.012   4.028
  216OL     H3S 9444   4.962   0.979   4.074
  216OL     C14 9445   4.833   0.810   4.048
  216OL     H4R 9446   4.920   0.741   4.041
  216OL     H4S 9447   4.759   0.789   3.970
  216OL     C15 9448   4.766   0.804   4.185
  216OL     H5R 9449   4.723   0.706   4.211
  216OL     H5S 9450   4.679   0.870   4.187
  216OL     C16 9451   4.867   0.841   4.291
  216OL     H6R 9452   4.897   0.947   4.279
  216OL     H6S 9453   4.961   0.784   4.271
  216OL     C17 9454   4.806   0.818   4.430
  216OL     H7R 9455   4.814   0.711   4.455
  216OL     H7S 9456   4.697   0.833   4.425
  216OL     C18 9457   4.863   0.903   4.542
  216OL     H8R 9458   4.808   0.887   4.638
  216OL     H8S 9459   4.855   1.010   4.513
  216OL     C19 9460   5.007   0.867   4.541
  216OL     H9R 9461   5.052   0.858   4.441
  216OL    C110 9462   5.073   0.818   4.645
  216OL    H10R 9463   5.139   0.736   4.629
  216OL    C111 9464   5.032   0.796   4.779
  216OL    H11R 9465   5.058   0.689   4.783
  216OL    H11S 9466   4.929   0.821   4.770
  216OL    C112 9467   5.087   0.822   4.914
  216OL    H12R 9468   5.178   0.764   4.911
  216OL    H12S 9469   5.037   0.769   4.998
  216OL    C113 9470   5.093   0.971   4.930
  216OL    H13R 9471   5.143   1.013   4.840
  216OL    H13S 9472   5.157   0.996   5.018
  216OL    C114 9473   4.949   1.026   4.934
  216OL    H14R 9474   4.896   0.999   4.841
  216OL    H14S 9475   4.953   1.136   4.940
  216OL    C115 9476   4.861   0.967   5.043
  216OL    H15R 9477   4.859   0.858   5.020
  216OL    H15S 9478   4.758   1.007   5.047
  216OL    C116 9479   4.925   0.977   5.177
  216OL    H16R 9480   5.017   0.924   5.153
  216OL    H16S 9481   4.877   0.905   5.245
  216OL    C117 9482   4.941   1.124   5.226
  216OL    H17R 9483   4.846   1.147   5.281
  216OL    H17S 9484   4.952   1.191   5.141
  216OL    C118 9485   5.048   1.166   5.325
  216OL    H18R 9486   5.011   1.093   5.393
  216OL    H18S 9487   5.042   1.262   5.377
  216OL    H18T 9488   5.156   1.144   5.314
  217PA    C116 9489   4.159   0.511   5.268
  217PA    H16R 9490   4.104   0.421   5.237
  217PA    H16S 9491   4.128   0.604   5.218
  217PA    H16T 9492   4.127   0.523   5.377
  217PA    C115 9493   4.313   0.471   5.250
  217PA    H15R 9494   4.299   0.541   5.324
  217PA    H15S 9495   4.316   0.377   5.307
  217PA    C114 9496   4.463   0.514   5.173
  217PA    H14R 9497   4.524   0.427   5.199
  217PA    H14S 9498   4.438   0.500   5.069
  217PA    C113 9499   4.586   0.634   5.185
  217PA    H13R 9500   4.555   0.737   5.207
  217PA    H13S 9501   4.658   0.642   5.268
  217PA    C112 9502   4.688   0.681   5.086
  217PA    H12R 9503   4.712   0.787   5.115
  217PA    H12S 9504   4.784   0.638   5.106
  217PA    C111 9505   4.641   0.673   4.946
  217PA    H11R 9506   4.537   0.635   4.942
  217PA    H11S 9507   4.648   0.778   4.904
  217PA    C110 9508   4.706   0.571   4.871
  217PA    H10R 9509   4.686   0.470   4.912
  217PA    H10S 9510   4.665   0.588   4.768
  217PA     C19 9511   4.847   0.607   4.875
  217PA     H9R 9512   4.826   0.711   4.850
  217PA     H9S 9513   4.904   0.615   4.970
  217PA     C18 9514   4.914   0.515   4.779
  217PA     H8R 9515   5.022   0.506   4.805
  217PA     H8S 9516   4.872   0.418   4.800
  217PA     C17 9517   4.887   0.553   4.634
  217PA     H7R 9518   4.782   0.539   4.605
  217PA     H7S 9519   4.893   0.661   4.628
  217PA     C16 9520   4.985   0.489   4.536
  217PA     H6R 9521   5.089   0.508   4.570
  217PA     H6S 9522   4.967   0.380   4.538
  217PA     C15 9523   4.971   0.531   4.390
  217PA     H5R 9524   4.994   0.638   4.388
  217PA     H5S 9525   5.053   0.487   4.328
  217PA     C14 9526   4.836   0.488   4.328
  217PA     H4R 9527   4.821   0.382   4.353
  217PA     H4S 9528   4.750   0.545   4.368
  217PA     C13 9529   4.836   0.493   4.175
  217PA     H3R 9530   4.872   0.593   4.151
  217PA     H3S 9531   4.921   0.431   4.143
  217PA     C12 9532   4.699   0.461   4.101
  217PA     H2R 9533   4.701   0.352   4.085
  217PA     H2S 9534   4.616   0.489   4.168
  218PC     C11 9535   4.658   0.520   3.961
  218PC     O12 9536   4.724   0.596   3.894
  218PC     O11 9537   4.537   0.478   3.921
  218PC      C1 9538   4.513   0.521   3.783
  218PC      HR 9539   4.406   0.501   3.760
  218PC      HS 9540   4.528   0.631   3.768
  218PC      C2 9541   4.595   0.443   3.675
  218PC      HX 9542   4.701   0.477   3.678
  218PC      C3 9543   4.546   0.474   3.531
  218PC      HA 9544   4.436   0.456   3.532
  218PC      HB 9545   4.565   0.582   3.512
  218PC     O31 9546   4.615   0.396   3.433
  218PC     P31 9547   4.538   0.349   3.303
  218PC     O32 9548   4.459   0.482   3.266
  218PC     C31 9549   4.335   0.471   3.193
  218PC     H1A 9550   4.344   0.395   3.112
  218PC     H1B 9551   4.254   0.438   3.261
  218PC     C32 9552   4.295   0.606   3.127
  218PC     H2A 9553   4.382   0.638   3.067
  218PC     H2B 9554   4.215   0.591   3.054
  218PC     N31 9555   4.258   0.719   3.223
  218PC     C33 9556   4.374   0.744   3.313
  218PC     H3A 9557   4.464   0.745   3.250
  218PC     H3B 9558   4.367   0.836   3.367
  218PC     H3C 9559   4.391   0.658   3.378
  218PC     C34 9560   4.232   0.845   3.148
  218PC     H4A 9561   4.186   0.919   3.212
  218PC     H4B 9562   4.323   0.884   3.105
  218PC     H4C 9563   4.162   0.823   3.068
  218PC     C35 9564   4.135   0.686   3.303
  218PC     H5A 9565   4.049   0.674   3.237
  218PC     H5B 9566   4.114   0.765   3.374
  218PC     H5C 9567   4.150   0.595   3.359
  218PC     O33 9568   4.624   0.314   3.189
  218PC     O34 9569   4.431   0.252   3.340
  218PC     O21 9570   4.581   0.305   3.708
  218PC     C21 9571   4.677   0.222   3.673
  218PC     O22 9572   4.769   0.243   3.597
  219OL     C12 9573   4.662   0.096   3.758
  219OL     H2R 9574   4.759   0.072   3.806
  219OL     H2S 9575   4.634   0.012   3.692
  219OL     C13 9576   4.556   0.114   3.868
  219OL     H3R 9577   4.456   0.136   3.824
  219OL     H3S 9578   4.582   0.200   3.933
  219OL     C14 9579   4.550  -0.011   3.950
  219OL     H4R 9580   4.647  -0.028   4.001
  219OL     H4S 9581   4.530  -0.099   3.884
  219OL     C15 9582   4.437  -0.005   4.049
  219OL     H5R 9583   4.440  -0.099   4.108
  219OL     H5S 9584   4.355  -0.005   3.980
  219OL     C16 9585   4.417   0.115   4.140
  219OL     H6R 9586   4.351   0.088   4.226
  219OL     H6S 9587   4.377   0.206   4.091
  219OL     C17 9588   4.546   0.146   4.204
  219OL     H7R 9589   4.535   0.240   4.263
  219OL     H7S 9590   4.623   0.166   4.124
  219OL     C18 9591   4.583   0.023   4.284
  219OL     H8R 9592   4.598  -0.064   4.222
  219OL     H8S 9593   4.514  -0.005   4.367
  219OL     C19 9594   4.710   0.077   4.326
  219OL     H9R 9595   4.805   0.035   4.288
  219OL    C110 9596   4.703   0.154   4.430
  219OL    H10R 9597   4.793   0.211   4.442
  219OL    C111 9598   4.589   0.199   4.520
  219OL    H11R 9599   4.585   0.134   4.611
  219OL    H11S 9600   4.491   0.172   4.477
  219OL    C112 9601   4.604   0.345   4.573
  219OL    H12R 9602   4.625   0.413   4.489
  219OL    H12S 9603   4.683   0.373   4.643
  219OL    C113 9604   4.491   0.385   4.664
  219OL    H13R 9605   4.504   0.492   4.690
  219OL    H13S 9606   4.487   0.330   4.761
  219OL    C114 9607   4.369   0.353   4.585
  219OL    H14R 9608   4.333   0.251   4.609
  219OL    H14S 9609   4.399   0.355   4.477
  219OL    C115 9610   4.268   0.463   4.598
  219OL    H15R 9611   4.212   0.461   4.502
  219OL    H15S 9612   4.321   0.561   4.606
  219OL    C116 9613   4.173   0.443   4.714
  219OL    H16R 9614   4.135   0.338   4.714
  219OL    H16S 9615   4.087   0.511   4.696
  219OL    C117 9616   4.230   0.476   4.851
  219OL    H17R 9617   4.239   0.587   4.861
  219OL    H17S 9618   4.331   0.433   4.867
  219OL    C118 9619   4.140   0.422   4.961
  219OL    H18R 9620   4.190   0.448   5.052
  219OL    H18S 9621   4.132   0.312   4.960
  219OL    H18T 9622   4.040   0.469   4.961
  220PA    C116 9623   0.990   3.406   5.037
  220PA    H16R 9624   0.910   3.411   4.960
  220PA    H16S 9625   0.971   3.480   5.116
  220PA    H16T 9626   0.994   3.303   5.080
  220PA    C115 9627   1.117   3.457   4.980
  220PA    H15R 9628   1.191   3.470   5.061
  220PA    H15S 9629   1.151   3.380   4.912
  220PA    C114 9630   1.087   3.588   4.907
  220PA    H14R 9631   1.004   3.569   4.834
  220PA    H14S 9632   1.051   3.664   4.980
  220PA    C113 9633   1.207   3.642   4.830
  220PA    H13R 9634   1.293   3.660   4.897
  220PA    H13S 9635   1.237   3.563   4.760
  220PA    C112 9636   1.172   3.769   4.750
  220PA    H12R 9637   1.078   3.751   4.694
  220PA    H12S 9638   1.156   3.852   4.822
  220PA    C111 9639   1.281   3.810   4.651
  220PA    H11R 9640   1.267   3.915   4.617
  220PA    H11S 9641   1.379   3.806   4.704
  220PA    C110 9642   1.289   3.719   4.528
  220PA    H10R 9643   1.382   3.748   4.478
  220PA    H10S 9644   1.297   3.614   4.562
  220PA     C19 9645   1.185   3.737   4.417
  220PA     H9R 9646   1.085   3.718   4.460
  220PA     H9S 9647   1.191   3.842   4.380
  220PA     C18 9648   1.206   3.645   4.294
  220PA     H8R 9649   1.245   3.547   4.328
  220PA     H8S 9650   1.105   3.625   4.252
  220PA     C17 9651   1.290   3.713   4.184
  220PA     H7R 9652   1.241   3.809   4.158
  220PA     H7S 9653   1.390   3.736   4.225
  220PA     C16 9654   1.313   3.640   4.050
  220PA     H6R 9655   1.373   3.701   3.979
  220PA     H6S 9656   1.377   3.555   4.067
  220PA     C15 9657   1.186   3.593   3.983
  220PA     H5R 9658   1.205   3.505   3.917
  220PA     H5S 9659   1.111   3.559   4.057
  220PA     C14 9660   1.134   3.706   3.897
  220PA     H4R 9661   1.099   3.792   3.958
  220PA     H4S 9662   1.211   3.741   3.824
  220PA     C13 9663   1.025   3.649   3.815
  220PA     H3R 9664   0.994   3.726   3.740
  220PA     H3S 9665   1.064   3.559   3.760
  220PA     C12 9666   0.911   3.608   3.904
  220PA     H2R 9667   0.914   3.539   3.989
  220PA     H2S 9668   0.869   3.705   3.943
  221PC     C11 9669   0.826   3.567   3.793
  221PC     O12 9670   0.751   3.654   3.765
  221PC     O11 9671   0.852   3.453   3.727
  221PC      C1 9672   0.780   3.418   3.605
  221PC      HR 9673   0.788   3.311   3.579
  221PC      HS 9674   0.681   3.425   3.632
  221PC      C2 9675   0.740   3.512   3.483
  221PC      HX 9676   0.650   3.469   3.432
  221PC      C3 9677   0.853   3.508   3.389
  221PC      HA 9678   0.882   3.400   3.383
  221PC      HB 9679   0.820   3.544   3.288
  221PC     O31 9680   0.950   3.589   3.454
  221PC     P31 9681   1.081   3.600   3.373
  221PC     O32 9682   1.017   3.673   3.247
  221PC     C31 9683   1.093   3.693   3.130
  221PC     H1A 9684   1.159   3.606   3.109
  221PC     H1B 9685   1.025   3.702   3.043
  221PC     C32 9686   1.176   3.822   3.141
  221PC     H2A 9687   1.246   3.803   3.222
  221PC     H2B 9688   1.231   3.829   3.048
  221PC     N31 9689   1.106   3.956   3.168
  221PC     C33 9690   1.037   3.955   3.301
  221PC     H3A 9691   1.100   3.919   3.382
  221PC     H3B 9692   0.996   4.052   3.326
  221PC     H3C 9693   0.956   3.882   3.298
  221PC     C34 9694   1.209   4.061   3.168
  221PC     H4A 9695   1.244   4.086   3.070
  221PC     H4B 9696   1.176   4.152   3.216
  221PC     H4C 9697   1.290   4.020   3.226
  221PC     C35 9698   1.004   3.988   3.065
  221PC     H5A 9699   0.925   3.914   3.068
  221PC     H5B 9700   1.042   3.988   2.963
  221PC     H5C 9701   0.960   4.085   3.081
  221PC     O33 9702   1.180   3.692   3.435
  221PC     O34 9703   1.118   3.462   3.336
  221PC     O21 9704   0.710   3.644   3.526
  221PC     C21 9705   0.654   3.726   3.445
  221PC     O22 9706   0.621   3.705   3.330
  222OL     C12 9707   0.614   3.854   3.518
  222OL     H2R 9708   0.510   3.837   3.556
  222OL     H2S 9709   0.623   3.939   3.447
  222OL     C13 9710   0.696   3.893   3.637
  222OL     H3R 9711   0.803   3.874   3.615
  222OL     H3S 9712   0.655   3.828   3.714
  222OL     C14 9713   0.669   4.031   3.693
  222OL     H4R 9714   0.563   4.038   3.728
  222OL     H4S 9715   0.684   4.103   3.610
  222OL     C15 9716   0.769   4.059   3.806
  222OL     H5R 9717   0.780   4.168   3.821
  222OL     H5S 9718   0.867   4.019   3.770
  222OL     C16 9719   0.741   3.992   3.942
  222OL     H6R 9720   0.827   4.008   4.010
  222OL     H6S 9721   0.736   3.882   3.923
  222OL     C17 9722   0.619   4.043   4.021
  222OL     H7R 9723   0.527   4.019   3.963
  222OL     H7S 9724   0.618   4.153   4.023
  222OL     C18 9725   0.617   3.990   4.168
  222OL     H8R 9726   0.537   4.053   4.214
  222OL     H8S 9727   0.711   4.002   4.226
  222OL     C19 9728   0.555   3.858   4.186
  222OL     H9R 9729   0.472   3.864   4.118
  222OL    C110 9730   0.584   3.742   4.245
  222OL    H10R 9731   0.515   3.653   4.247
  222OL    C111 9732   0.702   3.726   4.326
  222OL    H11R 9733   0.773   3.811   4.312
  222OL    H11S 9734   0.753   3.630   4.301
  222OL    C112 9735   0.635   3.717   4.460
  222OL    H12R 9736   0.575   3.623   4.474
  222OL    H12S 9737   0.565   3.802   4.480
  222OL    C113 9738   0.745   3.725   4.562
  222OL    H13R 9739   0.815   3.804   4.527
  222OL    H13S 9740   0.799   3.628   4.564
  222OL    C114 9741   0.687   3.767   4.694
  222OL    H14R 9742   0.635   3.865   4.680
  222OL    H14S 9743   0.771   3.783   4.765
  222OL    C115 9744   0.584   3.667   4.747
  222OL    H15R 9745   0.619   3.562   4.739
  222OL    H15S 9746   0.492   3.676   4.686
  222OL    C116 9747   0.556   3.695   4.893
  222OL    H16R 9748   0.464   3.645   4.930
  222OL    H16S 9749   0.540   3.805   4.907
  222OL    C117 9750   0.672   3.643   4.975
  222OL    H17R 9751   0.772   3.671   4.936
  222OL    H17S 9752   0.664   3.534   4.991
  222OL    C118 9753   0.662   3.706   5.106
  222OL    H18R 9754   0.760   3.711   5.158
  222OL    H18S 9755   0.589   3.653   5.170
  222OL    H18T 9756   0.626   3.811   5.092
  223PA    C116 9757   0.861   1.363   5.074
  223PA    H16R 9758   0.942   1.334   5.140
  223PA    H16S 9759   0.777   1.339   5.135
  223PA    H16T 9760   0.845   1.472   5.075
  223PA    C115 9761   0.856   1.296   4.934
  223PA    H15R 9762   0.752   1.297   4.906
  223PA    H15S 9763   0.911   1.354   4.859
  223PA    C114 9764   0.894   1.149   4.913
  223PA    H14R 9765   0.975   1.104   4.974
  223PA    H14S 9766   0.794   1.112   4.938
  223PA    C113 9767   0.909   1.081   4.779
  223PA    H13R 9768   0.992   1.126   4.723
  223PA    H13S 9769   0.930   0.971   4.796
  223PA    C112 9770   0.777   1.091   4.711
  223PA    H12R 9771   0.717   1.011   4.758
  223PA    H12S 9772   0.721   1.184   4.718
  223PA    C111 9773   0.769   1.032   4.579
  223PA    H11R 9774   0.782   0.931   4.611
  223PA    H11S 9775   0.664   1.050   4.546
  223PA    C110 9776   0.878   1.052   4.480
  223PA    H10R 9777   0.978   1.029   4.521
  223PA    H10S 9778   0.866   0.983   4.393
  223PA     C19 9779   0.859   1.195   4.443
  223PA     H9R 9780   0.762   1.204   4.388
  223PA     H9S 9781   0.850   1.255   4.536
  223PA     C18 9782   0.982   1.243   4.372
  223PA     H8R 9783   0.964   1.350   4.346
  223PA     H8S 9784   1.071   1.233   4.436
  223PA     C17 9785   1.008   1.163   4.249
  223PA     H7R 9786   1.105   1.191   4.202
  223PA     H7S 9787   0.999   1.052   4.249
  223PA     C16 9788   0.901   1.208   4.164
  223PA     H6R 9789   0.799   1.170   4.187
  223PA     H6S 9790   0.898   1.321   4.161
  223PA     C15 9791   0.941   1.154   4.037
  223PA     H5R 9792   1.036   1.211   4.005
  223PA     H5S 9793   0.957   1.046   4.017
  223PA     C14 9794   0.821   1.214   3.974
  223PA     H4R 9795   0.838   1.320   3.985
  223PA     H4S 9796   0.887   1.179   3.901
  223PA     C13 9797   0.674   1.174   3.949
  223PA     H3R 9798   0.671   1.063   3.950
  223PA     H3S 9799   0.613   1.212   4.033
  223PA     C12 9800   0.589   1.210   3.813
  223PA     H2R 9801   0.613   1.133   3.753
  223PA     H2S 9802   0.504   1.165   3.847
  224PC     C11 9803   0.535   1.327   3.702
  224PC     O12 9804   0.422   1.375   3.697
  224PC     O11 9805   0.629   1.367   3.625
  224PC      C1 9806   0.625   1.491   3.556
  224PC      HR 9807   0.529   1.502   3.515
  224PC      HS 9808   0.609   1.577   3.623
  224PC      C2 9809   0.756   1.509   3.477
  224PC      HX 9810   0.743   1.597   3.412
  224PC      C3 9811   0.807   1.385   3.385
  224PC      HA 9812   0.718   1.353   3.328
  224PC      HB 9813   0.879   1.426   3.313
  224PC     O31 9814   0.866   1.272   3.448
  224PC     P31 9815   0.969   1.157   3.413
  224PC     O32 9816   0.957   1.179   3.260
  224PC     C31 9817   1.072   1.231   3.200
  224PC     H1A 9818   1.040   1.278   3.106
  224PC     H1B 9819   1.116   1.314   3.262
  224PC     C32 9820   1.166   1.111   3.184
  224PC     H2A 9821   1.259   1.151   3.150
  224PC     H2B 9822   1.181   1.069   3.284
  224PC     N31 9823   1.120   1.000   3.090
  224PC     C33 9824   1.012   0.916   3.157
  224PC     H3A 9825   1.050   0.865   3.245
  224PC     H3B 9826   0.932   0.980   3.196
  224PC     H3C 9827   0.968   0.843   3.092
  224PC     C34 9828   1.069   1.060   2.963
  224PC     H4A 9829   0.975   1.113   2.981
  224PC     H4B 9830   1.140   1.133   2.925
  224PC     H4C 9831   1.050   0.987   2.885
  224PC     C35 9832   1.236   0.910   3.063
  224PC     H5A 9833   1.205   0.820   3.011
  224PC     H5B 9834   1.282   0.880   3.157
  224PC     H5C 9835   1.308   0.962   3.001
  224PC     O33 9836   1.100   1.196   3.468
  224PC     O34 9837   0.934   1.014   3.435
  224PC     O21 9838   0.841   1.549   3.585
  224PC     C21 9839   0.965   1.548   3.572
  224PC     O22 9840   1.030   1.554   3.469
  225OL     C12 9841   1.024   1.537   3.717
  225OL     H2R 9842   1.060   1.436   3.745
  225OL     H2S 9843   0.978   1.598   3.796
  225OL     C13 9844   1.148   1.603   3.724
  225OL     H3R 9845   1.122   1.704   3.690
  225OL     H3S 9846   1.189   1.556   3.636
  225OL     C14 9847   1.225   1.596   3.859
  225OL     H4R 9848   1.173   1.651   3.938
  225OL     H4S 9849   1.321   1.652   3.851
  225OL     C15 9850   1.282   1.461   3.899
  225OL     H5R 9851   1.273   1.413   3.802
  225OL     H5S 9852   1.225   1.381   3.945
  225OL     C16 9853   1.418   1.480   3.972
  225OL     H6R 9854   1.491   1.550   3.923
  225OL     H6S 9855   1.470   1.384   3.984
  225OL     C17 9856   1.390   1.532   4.112
  225OL     H7R 9857   1.343   1.631   4.099
  225OL     H7S 9858   1.482   1.545   4.172
  225OL     C18 9859   1.292   1.441   4.184
  225OL     H8R 9860   1.207   1.406   4.126
  225OL     H8S 9861   1.251   1.488   4.276
  225OL     C19 9862   1.375   1.324   4.211
  225OL     H9R 9863   1.407   1.262   4.125
  225OL    C110 9864   1.395   1.286   4.335
  225OL    H10R 9865   1.353   1.192   4.355
  225OL    C111 9866   1.362   1.335   4.466
  225OL    H11R 9867   1.254   1.363   4.464
  225OL    H11S 9868   1.429   1.419   4.489
  225OL    C112 9869   1.388   1.208   4.555
  225OL    H12R 9870   1.482   1.152   4.533
  225OL    H12S 9871   1.304   1.134   4.550
  225OL    C113 9872   1.398   1.250   4.696
  225OL    H13R 9873   1.471   1.334   4.696
  225OL    H13S 9874   1.441   1.170   4.761
  225OL    C114 9875   1.252   1.285   4.731
  225OL    H14R 9876   1.198   1.188   4.740
  225OL    H14S 9877   1.205   1.350   4.655
  225OL    C115 9878   1.240   1.367   4.855
  225OL    H15R 9879   1.214   1.473   4.856
  225OL    H15S 9880   1.348   1.364   4.862
  225OL    C116 9881   1.174   1.305   4.974
  225OL    H16R 9882   1.201   1.196   4.973
  225OL    H16S 9883   1.075   1.292   4.944
  225OL    C117 9884   1.177   1.395   5.114
  225OL    H17R 9885   1.125   1.302   5.138
  225OL    H17S 9886   1.095   1.463   5.126
  225OL    C118 9887   1.275   1.441   5.240
  225OL    H18R 9888   1.328   1.532   5.265
  225OL    H18S 9889   1.367   1.381   5.248
  225OL    H18T 9890   1.321   1.372   5.302
  226PA    C116 9891   0.522   2.912   5.322
  226PA    H16R 9892   0.570   2.826   5.274
  226PA    H16S 9893   0.468   2.972   5.246
  226PA    H16T 9894   0.462   2.873   5.404
  226PA    C115 9895   0.619   2.986   5.395
  226PA    H15R 9896   0.573   3.082   5.431
  226PA    H15S 9897   0.636   2.917   5.481
  226PA    C114 9898   0.737   2.995   5.303
  226PA    H14R 9899   0.711   3.031   5.203
  226PA    H14S 9900   0.797   3.074   5.352
  226PA    C113 9901   0.815   2.861   5.299
  226PA    H13R 9902   0.922   2.890   5.284
  226PA    H13S 9903   0.793   2.808   5.394
  226PA    C112 9904   0.802   2.744   5.207
  226PA    H12R 9905   0.861   2.659   5.250
  226PA    H12S 9906   0.700   2.706   5.204
  226PA    C111 9907   0.870   2.782   5.078
  226PA    H11R 9908   0.833   2.881   5.046
  226PA    H11S 9909   0.979   2.795   5.096
  226PA    C110 9910   0.846   2.669   4.979
  226PA    H10R 9911   0.906   2.685   4.888
  226PA    H10S 9912   0.881   2.577   5.032
  226PA     C19 9913   0.699   2.645   4.946
  226PA     H9R 9914   0.677   2.536   4.948
  226PA     H9S 9915   0.638   2.687   5.026
  226PA     C18 9916   0.652   2.701   4.811
  226PA     H8R 9917   0.608   2.801   4.825
  226PA     H8S 9918   0.738   2.714   4.743
  226PA     C17 9919   0.543   2.615   4.748
  226PA     H7R 9920   0.580   2.513   4.728
  226PA     H7S 9921   0.457   2.601   4.818
  226PA     C16 9922   0.480   2.676   4.624
  226PA     H6R 9923   0.405   2.599   4.596
  226PA     H6S 9924   0.426   2.770   4.650
  226PA     C15 9925   0.569   2.706   4.503
  226PA     H5R 9926   0.510   2.771   4.434
  226PA     H5S 9927   0.658   2.764   4.534
  226PA     C14 9928   0.607   2.578   4.427
  226PA     H4R 9929   0.660   2.509   4.495
  226PA     H4S 9930   0.513   2.528   4.395
  226PA     C13 9931   0.692   2.598   4.301
  226PA     H3R 9932   0.800   2.602   4.327
  226PA     H3S 9933   0.677   2.507   4.238
  226PA     C12 9934   0.656   2.722   4.214
  226PA     H2R 9935   0.546   2.734   4.208
  226PA     H2S 9936   0.701   2.812   4.259
  227PC     C11 9937   0.713   2.708   4.072
  227PC     O12 9938   0.824   2.665   4.047
  227PC     O11 9939   0.630   2.758   3.983
  227PC      C1 9940   0.685   2.777   3.850
  227PC      HR 9941   0.742   2.872   3.848
  227PC      HS 9942   0.754   2.694   3.822
  227PC      C2 9943   0.579   2.781   3.734
  227PC      HX 9944   0.538   2.680   3.726
  227PC      C3 9945   0.651   2.815   3.595
  227PC      HA 9946   0.685   2.920   3.599
  227PC      HB 9947   0.738   2.746   3.587
  227PC     O31 9948   0.572   2.795   3.477
  227PC     P31 9949   0.605   2.810   3.324
  227PC     O32 9950   0.644   2.960   3.319
  227PC     C31 9951   0.538   3.048   3.348
  227PC     H1A 9952   0.442   3.025   3.295
  227PC     H1B 9953   0.517   3.050   3.458
  227PC     C32 9954   0.594   3.180   3.302
  227PC     H2A 9955   0.537   3.257   3.351
  227PC     H2B 9956   0.695   3.181   3.344
  227PC     N31 9957   0.601   3.206   3.153
  227PC     C33 9958   0.465   3.198   3.092
  227PC     H3A 9959   0.459   3.255   3.000
  227PC     H3B 9960   0.437   3.094   3.076
  227PC     H3C 9961   0.394   3.240   3.162
  227PC     C34 9962   0.658   3.344   3.139
  227PC     H4A 9963   0.603   3.414   3.202
  227PC     H4B 9964   0.762   3.347   3.171
  227PC     H4C 9965   0.655   3.382   3.037
  227PC     C35 9966   0.692   3.108   3.084
  227PC     H5A 9967   0.796   3.124   3.111
  227PC     H5B 9968   0.681   3.105   2.977
  227PC     H5C 9969   0.671   3.005   3.118
  227PC     O33 9970   0.724   2.731   3.290
  227PC     O34 9971   0.480   2.792   3.246
  227PC     O21 9972   0.473   2.876   3.761
  227PC     C21 9973   0.378   2.855   3.853
  227PC     O22 9974   0.379   2.784   3.951
  228OL     C12 9975   0.254   2.935   3.811
  228OL     H2R 9976   0.160   2.880   3.814
  228OL     H2S 9977   0.264   2.982   3.712
  228OL     C13 9978   0.238   3.029   3.923
  228OL     H3R 9979   0.230   2.973   4.020
  228OL     H3S 9980   0.139   3.079   3.910
  228OL     C14 9981   0.361   3.119   3.919
  228OL     H4R 9982   0.322   3.208   3.867
  228OL     H4S 9983   0.449   3.082   3.863
  228OL     C15 9984   0.413   3.141   4.059
  228OL     H5R 9985   0.385   3.064   4.133
  228OL     H5S 9986   0.336   3.216   4.065
  228OL     C16 9987   0.530   3.234   4.094
  228OL     H6R 9988   0.497   3.327   4.047
  228OL     H6S 9989   0.623   3.197   4.049
  228OL     C17 9990   0.553   3.289   4.237
  228OL     H7R 9991   0.489   3.379   4.255
  228OL     H7S 9992   0.655   3.332   4.244
  228OL     C18 9993   0.533   3.190   4.352
  228OL     H8R 9994   0.436   3.137   4.354
  228OL     H8S 9995   0.535   3.252   4.442
  228OL     C19 9996   0.641   3.092   4.371
  228OL     H9R 9997   0.629   3.000   4.313
  228OL    C110 9998   0.739   3.109   4.461
  228OL    H10R 9999   0.807   3.027   4.483
  228OL    C11110000   0.752   3.227   4.553
  228OL    H11R10001   0.713   3.323   4.509
  228OL    H11S10002   0.857   3.250   4.582
  228OL    C11210003   0.669   3.201   4.679
  228OL    H12R10004   0.562   3.205   4.651
  228OL    H12S10005   0.699   3.298   4.723
  228OL    C11310006   0.696   3.073   4.772
  228OL    H13R10007   0.805   3.085   4.794
  228OL    H13S10008   0.680   2.986   4.707
  228OL    C11410009   0.629   3.026   4.914
  228OL    H14R10010   0.689   3.086   4.981
  228OL    H14S10011   0.672   2.931   4.948
  228OL    C11510012   0.472   3.013   4.949
  228OL    H15R10013   0.427   3.104   4.982
  228OL    H15S10014   0.414   3.013   5.045
  228OL    C11610015   0.383   2.970   4.836
  228OL    H16R10016   0.420   2.871   4.811
  228OL    H16S10017   0.388   3.039   4.751
  228OL    C11710018   0.239   2.962   4.880
  228OL    H17R10019   0.191   3.032   4.812
  228OL    H17S10020   0.226   2.978   4.991
  228OL    C11810021   0.153   2.847   4.862
  228OL    H18R10022   0.180   2.799   4.767
  228OL    H18S10023   0.045   2.880   4.863
  228OL    H18T10024   0.165   2.776   4.947
  229PA    C11610025   1.533   4.281   4.918
  229PA    H16R10026   1.593   4.207   4.862
  229PA    H16S10027   1.439   4.232   4.950
  229PA    H16T10028   1.591   4.308   5.009
  229PA    C11510029   1.504   4.403   4.830
  229PA    H15R10030   1.441   4.476   4.886
  229PA    H15S10031   1.599   4.455   4.805
  229PA    C11410032   1.431   4.364   4.700
  229PA    H14R10033   1.334   4.318   4.730
  229PA    H14S10034   1.409   4.455   4.641
  229PA    C11310035   1.506   4.262   4.610
  229PA    H13R10036   1.532   4.171   4.667
  229PA    H13S10037   1.435   4.230   4.530
  229PA    C11210038   1.630   4.320   4.541
  229PA    H12R10039   1.605   4.419   4.498
  229PA    H12S10040   1.710   4.335   4.617
  229PA    C11110041   1.685   4.232   4.427
  229PA    H11R10042   1.792   4.257   4.415
  229PA    H11S10043   1.678   4.124   4.455
  229PA    C11010044   1.616   4.257   4.290
  229PA    H10R10045   1.507   4.239   4.302
  229PA    H10S10046   1.631   4.364   4.264
  229PA     C1910047   1.670   4.171   4.173
  229PA     H9R10048   1.644   4.068   4.201
  229PA     H9S10049   1.611   4.190   4.081
  229PA     C1810050   1.822   4.188   4.145
  229PA     H8R10051   1.842   4.288   4.103
  229PA     H8S10052   1.873   4.179   4.244
  229PA     C1710053   1.890   4.078   4.059
  229PA     H7R10054   1.972   4.029   4.117
  229PA     H7S10055   1.809   4.006   4.043
  229PA     C1610056   1.929   4.097   3.914
  229PA     H6R10057   1.997   4.183   3.903
  229PA     H6S10058   1.987   4.005   3.887
  229PA     C1510059   1.806   4.103   3.821
  229PA     H5R10060   1.731   4.024   3.838
  229PA     H5S10061   1.751   4.197   3.837
  229PA     C1410062   1.849   4.090   3.677
  229PA     H4R10063   1.944   4.032   3.679
  229PA     H4S10064   1.774   4.028   3.623
  229PA     C1310065   1.862   4.233   3.620
  229PA     H3R10066   1.774   4.292   3.650
  229PA     H3S10067   1.956   4.273   3.666
  229PA     C1210068   1.873   4.253   3.469
  229PA     H2R10069   1.900   4.352   3.431
  229PA     H2S10070   1.968   4.196   3.461
  230PC     C1110071   1.754   4.201   3.383
  230PC     O1210072   1.756   4.189   3.261
  230PC     O1110073   1.671   4.134   3.459
  230PC      C110074   1.573   4.062   3.383
  230PC      HR10075   1.611   4.006   3.294
  230PC      HS10076   1.533   3.984   3.451
  230PC      C210077   1.462   4.157   3.333
  230PC      HX10078   1.377   4.091   3.325
  230PC      C310079   1.493   4.232   3.197
  230PC      HA10080   1.541   4.159   3.126
  230PC      HB10081   1.398   4.265   3.152
  230PC     O3110082   1.576   4.348   3.216
  230PC     P3110083   1.631   4.435   3.094
  230PC     O3210084   1.572   4.571   3.148
  230PC     C3110085   1.437   4.573   3.192
  230PC     H1A10086   1.388   4.662   3.150
  230PC     H1B10087   1.377   4.486   3.154
  230PC     C3210088   1.433   4.572   3.347
  230PC     H2A10089   1.333   4.546   3.376
  230PC     H2B10090   1.498   4.489   3.377
  230PC     N3110091   1.475   4.700   3.419
  230PC     C3310092   1.618   4.732   3.386
  230PC     H3A10093   1.686   4.660   3.429
  230PC     H3B10094   1.633   4.721   3.278
  230PC     H3C10095   1.646   4.832   3.417
  230PC     C3410096   1.389   4.813   3.372
  230PC     H4A10097   1.389   4.814   3.264
  230PC     H4B10098   1.287   4.798   3.406
  230PC     H4C10099   1.424   4.907   3.412
  230PC     C3510100   1.459   4.684   3.566
  230PC     H5A10101   1.368   4.630   3.590
  230PC     H5B10102   1.453   4.781   3.616
  230PC     H5C10103   1.542   4.630   3.609
  230PC     O3310104   1.780   4.440   3.097
  230PC     O3410105   1.559   4.391   2.972
  230PC     O2110106   1.433   4.255   3.433
  230PC     C2110107   1.397   4.208   3.552
  230PC     O2210108   1.371   4.093   3.579
  231OL     C1210109   1.399   4.323   3.650
  231OL     H2R10110   1.465   4.402   3.608
  231OL     H2S10111   1.445   4.287   3.744
  231OL     C1310112   1.255   4.373   3.669
  231OL     H3R10113   1.211   4.395   3.569
  231OL     H3S10114   1.260   4.469   3.726
  231OL     C1410115   1.162   4.277   3.745
  231OL     H4R10116   1.154   4.179   3.693
  231OL     H4S10117   1.061   4.322   3.744
  231OL     C1510118   1.203   4.254   3.891
  231OL     H5R10119   1.222   4.354   3.937
  231OL     H5S10120   1.296   4.194   3.897
  231OL     C1610121   1.098   4.181   3.977
  231OL     H6R10122   1.074   4.083   3.928
  231OL     H6S10123   1.004   4.240   3.980
  231OL     C1710124   1.148   4.153   4.120
  231OL     H7R10125   1.235   4.084   4.111
  231OL     H7S10126   1.069   4.098   4.177
  231OL     C1810127   1.194   4.276   4.200
  231OL     H8R10128   1.283   4.321   4.151
  231OL     H8S10129   1.230   4.239   4.299
  231OL     C1910130   1.085   4.378   4.223
  231OL     H9R10131   0.986   4.336   4.248
  231OL    C11010132   1.096   4.511   4.209
  231OL    H10R10133   1.008   4.573   4.231
  231OL    C11110134   1.219   4.590   4.168
  231OL    H11R10135   1.184   4.679   4.111
  231OL    H11S10136   1.283   4.532   4.098
  231OL    C11210137   1.312   4.642   4.280
  231OL    H12R10138   1.361   4.736   4.244
  231OL    H12S10139   1.392   4.568   4.304
  231OL    C11310140   1.240   4.674   4.411
  231OL    H13R10141   1.201   4.579   4.454
  231OL    H13S10142   1.156   4.741   4.384
  231OL    C11410143   1.330   4.744   4.513
  231OL    H14R10144   1.387   4.824   4.463
  231OL    H14S10145   1.401   4.668   4.552
  231OL    C11510146   1.249   4.806   4.629
  231OL    H15R10147   1.179   4.730   4.664
  231OL    H15S10148   1.188   4.891   4.593
  231OL    C11610149   1.329   4.837   4.755
  231OL    H16R10150   1.382   4.934   4.743
  231OL    H16S10151   1.406   4.757   4.768
  231OL    C11710152   1.241   4.838   4.881
  231OL    H17R10153   1.181   4.744   4.888
  231OL    H17S10154   1.169   4.923   4.876
  231OL    C11810155   1.322   4.852   5.008
  231OL    H18R10156   1.373   4.758   5.038
  231OL    H18S10157   1.260   4.887   5.093
  231OL    H18T10158   1.401   4.929   4.987
  232PA    C11610159   4.936   4.523   5.166
  232PA    H16R10160   4.979   4.435   5.216
  232PA    H16S10161   4.825   4.522   5.163
  232PA    H16T10162   4.960   4.595   5.239
  232PA    C11510163   4.983   4.543   5.023
  232PA    H15R10164   4.914   4.498   4.950
  232PA    H15S10165   4.968   4.647   4.992
  232PA    C11410166   5.123   4.492   4.993
  232PA    H14R10167   5.189   4.543   5.069
  232PA    H14S10168   5.144   4.384   5.007
  232PA    C11310169   5.159   4.534   4.850
  232PA    H13R10170   5.147   4.644   4.854
  232PA    H13S10171   5.261   4.492   4.836
  232PA    C11210172   5.098   4.490   4.718
  232PA    H12R10173   5.108   4.380   4.721
  232PA    H12S10174   4.992   4.523   4.713
  232PA    C11110175   5.175   4.534   4.589
  232PA    H11R10176   5.281   4.501   4.590
  232PA    H11S10177   5.123   4.482   4.506
  232PA    C11010178   5.167   4.678   4.538
  232PA    H10R10179   5.060   4.696   4.534
  232PA    H10S10180   5.178   4.761   4.602
  232PA     C1910181   5.279   4.722   4.440
  232PA     H9R10182   5.289   4.831   4.425
  232PA     H9S10183   5.382   4.693   4.472
  232PA     C1810184   5.248   4.677   4.305
  232PA     H8R10185   5.240   4.567   4.320
  232PA     H8S10186   5.148   4.720   4.281
  232PA     C1710187   5.353   4.721   4.206
  232PA     H7R10188   5.362   4.832   4.201
  232PA     H7S10189   5.453   4.681   4.236
  232PA     C1610190   5.310   4.665   4.073
  232PA     H6R10191   5.209   4.706   4.051
  232PA     H6S10192   5.379   4.698   3.992
  232PA     C1510193   5.303   4.512   4.079
  232PA     H5R10194   5.338   4.472   4.177
  232PA     H5S10195   5.196   4.482   4.069
  232PA     C1410196   5.387   4.447   3.970
  232PA     H4R10197   5.354   4.489   3.872
  232PA     H4S10198   5.493   4.473   3.985
  232PA     C1310199   5.364   4.295   3.966
  232PA     H3R10200   5.380   4.251   4.067
  232PA     H3S10201   5.255   4.286   3.943
  232PA     C1210202   5.449   4.222   3.859
  232PA     H2R10203   5.488   4.297   3.786
  232PA     H2S10204   5.535   4.174   3.909
  233PC     C1110205   5.381   4.106   3.781
  233PC     O1210206   5.326   4.012   3.834
  233PC     O1110207   5.411   4.112   3.651
  233PC      C110208   5.327   4.029   3.565
  233PC      HR10209   5.388   3.958   3.506
  233PC      HS10210   5.252   3.966   3.620
  233PC      C210211   5.251   4.121   3.466
  233PC      HX10212   5.196   4.056   3.394
  233PC      C310213   5.335   4.233   3.397
  233PC      HA10214   5.440   4.201   3.403
  233PC      HB10215   5.296   4.235   3.293
  233PC     O3110216   5.318   4.363   3.459
  233PC     P3110217   5.381   4.495   3.410
  233PC     O3210218   5.284   4.556   3.300
  233PC     C3110219   5.150   4.599   3.315
  233PC     H1A10220   5.119   4.602   3.422
  233PC     H1B10221   5.135   4.701   3.274
  233PC     C3210222   5.063   4.501   3.237
  233PC     H2A10223   5.112   4.408   3.265
  233PC     H2B10224   4.964   4.494   3.280
  233PC     N3110225   5.061   4.489   3.088
  233PC     C3310226   5.016   4.617   3.032
  233PC     H3A10227   5.095   4.689   3.048
  233PC     H3B10228   5.001   4.606   2.925
  233PC     H3C10229   4.924   4.650   3.078
  233PC     C3410230   5.200   4.464   3.034
  233PC     H4A10231   5.249   4.381   3.083
  233PC     H4B10232   5.200   4.446   2.927
  233PC     H4C10233   5.264   4.550   3.054
  233PC     C3510234   4.971   4.374   3.050
  233PC     H5A10235   4.869   4.398   3.074
  233PC     H5B10236   4.998   4.282   3.101
  233PC     H5C10237   4.975   4.353   2.943
  233PC     O3310238   5.393   4.587   3.525
  233PC     O3410239   5.504   4.446   3.345
  233PC     O2110240   5.159   4.189   3.542
  233PC     C2110241   5.089   4.286   3.497
  233PC     O2210242   5.065   4.294   3.377
  234OL     C1210243   5.012   4.363   3.612
  234OL     H2R10244   5.030   4.337   3.711
  234OL     H2S10245   4.921   4.322   3.645
  234OL     C1310246   4.996   4.508   3.628
  234OL     H3R10247   4.950   4.542   3.533
  234OL     H3S10248   5.104   4.531   3.641
  234OL     C1410249   4.910   4.536   3.755
  234OL     H4R10250   4.801   4.532   3.732
  234OL     H4S10251   4.938   4.640   3.778
  234OL     C1510252   4.931   4.453   3.888
  234OL     H5R10253   5.029   4.400   3.888
  234OL     H5S10254   4.853   4.377   3.905
  234OL     C1610255   4.929   4.540   4.013
  234OL     H6R10256   4.841   4.605   3.997
  234OL     H6S10257   5.021   4.601   4.010
  234OL     C1710258   4.912   4.472   4.150
  234OL     H7R10259   4.803   4.459   4.168
  234OL     H7S10260   4.957   4.536   4.229
  234OL     C1810261   4.968   4.333   4.166
  234OL     H8R10262   5.075   4.328   4.137
  234OL     H8S10263   4.907   4.276   4.091
  234OL     C1910264   4.945   4.272   4.302
  234OL     H9R10265   4.846   4.297   4.340
  234OL    C11010266   5.028   4.199   4.380
  234OL    H10R10267   4.984   4.145   4.464
  234OL    C11110268   5.170   4.155   4.356
  234OL    H11R10269   5.208   4.189   4.257
  234OL    H11S10270   5.178   4.044   4.361
  234OL    C11210271   5.266   4.214   4.456
  234OL    H12R10272   5.261   4.157   4.551
  234OL    H12S10273   5.234   4.318   4.474
  234OL    C11310274   5.406   4.221   4.397
  234OL    H13R10275   5.401   4.259   4.292
  234OL    H13S10276   5.450   4.119   4.392
  234OL    C11410277   5.493   4.319   4.476
  234OL    H14R10278   5.455   4.422   4.456
  234OL    H14S10279   5.597   4.314   4.439
  234OL    C11510280   5.490   4.295   4.628
  234OL    H15R10281   5.390   4.323   4.669
  234OL    H15S10282   5.564   4.363   4.673
  234OL    C11610283   5.524   4.150   4.666
  234OL    H16R10284   5.600   4.113   4.593
  234OL    H16S10285   5.435   4.084   4.657
  234OL    C11710286   5.583   4.135   4.807
  234OL    H17R10287   5.671   4.203   4.818
  234OL    H17S10288   5.622   4.030   4.816
  234OL    C11810289   5.484   4.160   4.920
  234OL    H18R10290   5.411   4.077   4.927
  234OL    H18S10291   5.429   4.255   4.903
  234OL    H18T10292   5.539   4.168   5.017
  235PA    C11610293   2.598   5.307   4.784
  235PA    H16R10294   2.517   5.370   4.744
  235PA    H16S10295   2.622   5.320   4.890
  235PA    H16T10296   2.572   5.200   4.767
  235PA    C11510297   2.706   5.370   4.720
  235PA    H15R10298   2.673   5.388   4.614
  235PA    H15S10299   2.724   5.466   4.775
  235PA    C11410300   2.804   5.266   4.746
  235PA    H14R10301   2.866   5.290   4.834
  235PA    H14S10302   2.760   5.164   4.765
  235PA    C11310303   2.868   5.257   4.616
  235PA    H13R10304   2.789   5.240   4.537
  235PA    H13S10305   2.916   5.355   4.596
  235PA    C11210306   2.961   5.142   4.621
  235PA    H12R10307   3.045   5.170   4.689
  235PA    H12S10308   2.910   5.052   4.663
  235PA    C11110309   2.999   5.115   4.479
  235PA    H11R10310   3.075   5.038   4.484
  235PA    H11S10311   2.915   5.063   4.429
  235PA    C11010312   3.031   5.245   4.400
  235PA    H10R10313   2.952   5.322   4.403
  235PA    H10S10314   3.127   5.289   4.436
  235PA     C1910315   3.040   5.212   4.253
  235PA     H9R10316   3.137   5.169   4.271
  235PA     H9S10317   2.966   5.137   4.219
  235PA     C1810318   3.074   5.316   4.147
  235PA     H8R10319   3.067   5.265   4.047
  235PA     H8S10320   2.998   5.397   4.149
  235PA     C1710321   3.217   5.372   4.160
  235PA     H7R10322   3.217   5.450   4.239
  235PA     H7S10323   3.289   5.293   4.190
  235PA     C1610324   3.271   5.431   4.031
  235PA     H6R10325   3.367   5.484   4.052
  235PA     H6S10326   3.295   5.352   3.956
  235PA     C1510327   3.171   5.528   3.972
  235PA     H5R10328   3.077   5.481   3.937
  235PA     H5S10329   3.146   5.603   4.050
  235PA     C1410330   3.236   5.606   3.861
  235PA     H4R10331   3.164   5.684   3.830
  235PA     H4S10332   3.330   5.644   3.912
  235PA     C1310333   3.304   5.548   3.743
  235PA     H3R10334   3.345   5.635   3.685
  235PA     H3S10335   3.388   5.493   3.792
  235PA     C1210336   3.216   5.467   3.653
  235PA     H2R10337   3.111   5.490   3.682
  235PA     H2S10338   3.231   5.492   3.546
  236PC     C1110339   3.245   5.320   3.675
  236PC     O1210340   3.351   5.268   3.707
  236PC     O1110341   3.131   5.261   3.662
  236PC      C110342   3.143   5.122   3.694
  236PC      HR10343   3.227   5.077   3.636
  236PC      HS10344   3.158   5.110   3.804
  236PC      C210345   3.017   5.047   3.652
  236PC      HX10346   3.023   4.944   3.694
  236PC      C310347   3.008   5.028   3.496
  236PC      HA10348   3.103   4.977   3.467
  236PC      HB10349   2.924   4.957   3.481
  236PC     O3110350   2.982   5.146   3.419
  236PC     P3110351   3.055   5.167   3.278
  236PC     O3210352   3.002   5.309   3.232
  236PC     C3110353   3.009   5.414   3.328
  236PC     H1A10354   2.935   5.398   3.410
  236PC     H1B10355   3.110   5.418   3.376
  236PC     C3210356   2.983   5.547   3.256
  236PC     H2A10357   3.024   5.630   3.311
  236PC     H2B10358   3.039   5.541   3.162
  236PC     N3110359   2.838   5.575   3.225
  236PC     C3310360   2.825   5.694   3.140
  236PC     H3A10361   2.887   5.776   3.177
  236PC     H3B10362   2.857   5.668   3.038
  236PC     H3C10363   2.722   5.725   3.132
  236PC     C3410364   2.782   5.463   3.144
  236PC     H4A10365   2.828   5.461   3.044
  236PC     H4B10366   2.809   5.368   3.190
  236PC     H4C10367   2.676   5.473   3.130
  236PC     C3510368   2.759   5.591   3.349
  236PC     H5A10369   2.785   5.513   3.420
  236PC     H5B10370   2.654   5.584   3.327
  236PC     H5C10371   2.781   5.689   3.391
  236PC     O3310372   3.201   5.176   3.298
  236PC     O3410373   3.011   5.063   3.182
  236PC     O2110374   2.903   5.115   3.705
  236PC     C2110375   2.877   5.094   3.832
  236PC     O2210376   2.928   5.012   3.906
  237OL     C1210377   2.757   5.179   3.866
  237OL     H2R10378   2.699   5.130   3.946
  237OL     H2S10379   2.704   5.169   3.770
  237OL     C1310380   2.785   5.330   3.889
  237OL     H3R10381   2.805   5.379   3.792
  237OL     H3S10382   2.877   5.338   3.950
  237OL     C1410383   2.675   5.407   3.964
  237OL     H4R10384   2.576   5.410   3.917
  237OL     H4S10385   2.704   5.514   3.964
  237OL     C1510386   2.661   5.353   4.106
  237OL     H5R10387   2.763   5.336   4.150
  237OL     H5S10388   2.604   5.258   4.110
  237OL     C1610389   2.590   5.449   4.195
  237OL     H6R10390   2.554   5.400   4.289
  237OL     H6S10391   2.503   5.496   4.144
  237OL     C1710392   2.685   5.555   4.242
  237OL     H7R10393   2.720   5.614   4.152
  237OL     H7S10394   2.777   5.519   4.292
  237OL     C1810395   2.597   5.631   4.336
  237OL     H8R10396   2.492   5.644   4.297
  237OL     H8S10397   2.610   5.727   4.275
  237OL     C1910398   2.575   5.617   4.493
  237OL     H9R10399   2.498   5.535   4.508
  237OL    C11010400   2.654   5.650   4.611
  237OL    H10R10401   2.613   5.623   4.711
  237OL    C11110402   2.770   5.753   4.638
  237OL    H11R10403   2.764   5.801   4.734
  237OL    H11S10404   2.788   5.856   4.603
  237OL    C11210405   2.906   5.703   4.580
  237OL    H12R10406   2.979   5.787   4.575
  237OL    H12S10407   2.896   5.661   4.478
  237OL    C11310408   2.970   5.612   4.674
  237OL    H13R10409   3.053   5.561   4.620
  237OL    H13S10410   2.893   5.540   4.706
  237OL    C11410411   3.018   5.698   4.787
  237OL    H14R10412   2.932   5.737   4.845
  237OL    H14S10413   3.079   5.784   4.750
  237OL    C11510414   3.108   5.619   4.874
  237OL    H15R10415   3.143   5.683   4.958
  237OL    H15S10416   3.190   5.592   4.804
  237OL    C11610417   3.046   5.488   4.917
  237OL    H16R10418   3.065   5.416   4.835
  237OL    H16S10419   2.935   5.499   4.928
  237OL    C11710420   3.114   5.438   5.043
  237OL    H17R10421   3.221   5.466   5.047
  237OL    H17S10422   3.101   5.328   5.048
  237OL    C11810423   3.051   5.494   5.166
  237OL    H18R10424   3.006   5.594   5.145
  237OL    H18S10425   3.108   5.493   5.260
  237OL    H18T10426   2.973   5.421   5.186
  238PA    C11610427   3.681  -0.343   4.953
  238PA    H16R10428   3.666  -0.407   5.042
  238PA    H16S10429   3.657  -0.399   4.861
  238PA    H16T10430   3.613  -0.256   4.961
  238PA    C11510431   3.826  -0.295   4.948
  238PA    H15R10432   3.839  -0.223   5.030
  238PA    H15S10433   3.897  -0.379   4.968
  238PA    C11410434   3.863  -0.222   4.819
  238PA    H14R10435   3.783  -0.148   4.796
  238PA    H14S10436   3.956  -0.165   4.839
  238PA    C11310437   3.883  -0.315   4.698
  238PA    H13R10438   3.956  -0.395   4.723
  238PA    H13S10439   3.786  -0.364   4.674
  238PA    C11210440   3.935  -0.239   4.575
  238PA    H12R10441   3.930  -0.308   4.488
  238PA    H12S10442   3.868  -0.153   4.554
  238PA    C11110443   4.079  -0.187   4.593
  238PA    H11R10444   4.081  -0.121   4.682
  238PA    H11S10445   4.147  -0.273   4.612
  238PA    C11010446   4.132  -0.103   4.476
  238PA    H10R10447   4.068  -0.012   4.467
  238PA    H10S10448   4.235  -0.070   4.500
  238PA     C1910449   4.134  -0.173   4.339
  238PA     H9R10450   4.230  -0.230   4.329
  238PA     H9S10451   4.052  -0.247   4.327
  238PA     C1810452   4.117  -0.072   4.226
  238PA     H8R10453   4.010  -0.041   4.220
  238PA     H8S10454   4.173   0.021   4.250
  238PA     C1710455   4.158  -0.133   4.092
  238PA     H7R10456   4.262  -0.164   4.101
  238PA     H7S10457   4.104  -0.229   4.080
  238PA     C1610458   4.129  -0.043   3.971
  238PA     H6R10459   4.023  -0.013   3.979
  238PA     H6S10460   4.179   0.057   3.975
  238PA     C1510461   4.168  -0.110   3.836
  238PA     H5R10462   4.148  -0.040   3.753
  238PA     H5S10463   4.278  -0.131   3.834
  238PA     C1410464   4.097  -0.244   3.808
  238PA     H4R10465   4.125  -0.278   3.705
  238PA     H4S10466   4.132  -0.322   3.879
  238PA     C1310467   3.944  -0.238   3.817
  238PA     H3R10468   3.900  -0.321   3.757
  238PA     H3S10469   3.912  -0.252   3.923
  238PA     C1210470   3.888  -0.106   3.764
  238PA     H2R10471   3.919  -0.017   3.821
  238PA     H2S10472   3.922  -0.091   3.659
  239PC     C1110473   3.739  -0.105   3.766
  239PC     O1210474   3.662  -0.158   3.844
  239PC     O1110475   3.709  -0.025   3.667
  239PC      C110476   3.573  -0.013   3.636
  239PC      HR10477   3.515  -0.101   3.669
  239PC      HS10478   3.540   0.082   3.684
  239PC      C210479   3.552  -0.007   3.485
  239PC      HX10480   3.446   0.025   3.467
  239PC      C310481   3.574  -0.141   3.414
  239PC      HA10482   3.524  -0.220   3.477
  239PC      HB10483   3.525  -0.137   3.315
  239PC     O3110484   3.714  -0.168   3.394
  239PC     P3110485   3.749  -0.316   3.350
  239PC     O3210486   3.854  -0.292   3.234
  239PC     C3110487   3.831  -0.196   3.134
  239PC     H1A10488   3.882  -0.227   3.040
  239PC     H1B10489   3.722  -0.188   3.109
  239PC     C3210490   3.884  -0.056   3.170
  239PC     H2A10491   3.856  -0.009   3.077
  239PC     H2B10492   3.818  -0.023   3.251
  239PC     N3110493   4.032  -0.025   3.209
  239PC     C3310494   4.123  -0.104   3.122
  239PC     H3A10495   4.226  -0.095   3.155
  239PC     H3B10496   4.092  -0.209   3.127
  239PC     H3C10497   4.119  -0.074   3.018
  239PC     C3410498   4.081   0.116   3.207
  239PC     H4A10499   4.092   0.141   3.102
  239PC     H4B10500   4.007   0.187   3.244
  239PC     H4C10501   4.178   0.138   3.248
  239PC     C3510502   4.044  -0.061   3.354
  239PC     H5A10503   4.143  -0.041   3.392
  239PC     H5B10504   4.015  -0.165   3.371
  239PC     H5C10505   3.974  -0.002   3.412
  239PC     O3310506   3.827  -0.375   3.460
  239PC     O3410507   3.626  -0.383   3.300
  239PC     O2110508   3.645   0.088   3.440
  239PC     C2110509   3.614   0.167   3.349
  239PC     O2210510   3.509   0.180   3.288
  240OL     C1210511   3.727   0.267   3.352
  240OL     H2R10512   3.673   0.342   3.413
  240OL     H2S10513   3.747   0.301   3.249
  240OL     C1310514   3.858   0.253   3.435
  240OL     H3R10515   3.937   0.318   3.392
  240OL     H3S10516   3.896   0.150   3.431
  240OL     C1410517   3.833   0.301   3.578
  240OL     H4R10518   3.748   0.241   3.617
  240OL     H4S10519   3.800   0.407   3.586
  240OL     C1510520   3.955   0.285   3.668
  240OL     H5R10521   4.041   0.344   3.631
  240OL     H5S10522   3.984   0.177   3.669
  240OL     C1610523   3.925   0.329   3.811
  240OL     H6R10524   3.902   0.438   3.813
  240OL     H6S10525   4.013   0.312   3.876
  240OL     C1710526   3.806   0.254   3.871
  240OL     H7R10527   3.802   0.149   3.838
  240OL     H7S10528   3.713   0.302   3.833
  240OL     C1810529   3.818   0.256   4.024
  240OL     H8R10530   3.835   0.362   4.047
  240OL     H8S10531   3.900   0.196   4.066
  240OL     C1910532   3.688   0.225   4.084
  240OL     H9R10533   3.639   0.323   4.096
  240OL    C11010534   3.637   0.110   4.136
  240OL    H10R10535   3.532   0.101   4.171
  240OL    C11110536   3.699  -0.024   4.142
  240OL    H11R10537   3.807  -0.019   4.114
  240OL    H11S10538   3.645  -0.092   4.075
  240OL    C11210539   3.677  -0.073   4.288
  240OL    H12R10540   3.713   0.004   4.359
  240OL    H12S10541   3.741  -0.163   4.300
  240OL    C11310542   3.531  -0.110   4.327
  240OL    H13R10543   3.491  -0.187   4.257
  240OL    H13S10544   3.465  -0.021   4.318
  240OL    C11410545   3.512  -0.160   4.471
  240OL    H14R10546   3.563  -0.258   4.487
  240OL    H14S10547   3.403  -0.176   4.489
  240OL    C11510548   3.563  -0.059   4.575
  240OL    H15R10549   3.548   0.043   4.533
  240OL    H15S10550   3.672  -0.072   4.589
  240OL    C11610551   3.490  -0.066   4.710
  240OL    H16R10552   3.509  -0.162   4.762
  240OL    H16S10553   3.381  -0.056   4.691
  240OL    C11710554   3.529   0.051   4.799
  240OL    H17R10555   3.519   0.135   4.727
  240OL    H17S10556   3.635   0.050   4.831
  240OL    C11810557   3.439   0.079   4.920
  240OL    H18R10558   3.480   0.159   4.984
  240OL    H18S10559   3.419  -0.010   4.983
  240OL    H18T10560   3.346   0.122   4.883
  241PA    C11610561   0.285   2.243   4.974
  241PA    H16R10562   0.289   2.277   5.080
  241PA    H16S10563   0.309   2.328   4.908
  241PA    H16T10564   0.361   2.163   4.961
  241PA    C11510565   0.146   2.188   4.944
  241PA    H15R10566   0.149   2.079   4.964
  241PA    H15S10567   0.075   2.237   5.014
  241PA    C11410568   0.088   2.207   4.803
  241PA    H14R10569  -0.015   2.166   4.802
  241PA    H14S10570   0.081   2.315   4.780
  241PA    C11310571   0.169   2.137   4.693
  241PA    H13R10572   0.274   2.171   4.700
  241PA    H13S10573   0.168   2.027   4.710
  241PA    C11210574   0.115   2.167   4.552
  241PA    H12R10575   0.079   2.273   4.549
  241PA    H12S10576   0.198   2.158   4.479
  241PA    C11110577  -0.001   2.075   4.512
  241PA    H11R10578   0.023   1.970   4.541
  241PA    H11S10579  -0.091   2.105   4.569
  241PA    C11010580  -0.034   2.074   4.361
  241PA    H10R10581   0.050   2.026   4.305
  241PA    H10S10582  -0.124   2.011   4.346
  241PA     C1910583  -0.059   2.213   4.301
  241PA     H9R10584  -0.136   2.267   4.360
  241PA     H9S10585   0.035   2.272   4.310
  241PA     C1810586  -0.103   2.207   4.153
  241PA     H8R10587  -0.013   2.195   4.089
  241PA     H8S10588  -0.165   2.116   4.140
  241PA     C1710589  -0.189   2.326   4.107
  241PA     H7R10590  -0.287   2.316   4.158
  241PA     H7S10591  -0.143   2.422   4.139
  241PA     C1610592  -0.220   2.331   3.956
  241PA     H6R10593  -0.267   2.236   3.921
  241PA     H6S10594  -0.293   2.414   3.938
  241PA     C1510595  -0.102   2.359   3.865
  241PA     H5R10596  -0.024   2.279   3.865
  241PA     H5S10597  -0.137   2.367   3.759
  241PA     C1410598  -0.034   2.489   3.899
  241PA     H4R10599  -0.106   2.574   3.913
  241PA     H4S10600   0.026   2.480   3.992
  241PA     C1310601   0.057   2.517   3.785
  241PA     H3R10602   0.140   2.440   3.791
  241PA     H3S10603   0.009   2.507   3.685
  241PA     C1210604   0.107   2.655   3.799
  241PA     H2R10605   0.034   2.733   3.771
  241PA     H2S10606   0.146   2.674   3.902
  242PC     C1110607   0.222   2.646   3.709
  242PC     O1210608   0.327   2.611   3.758
  242PC     O1110609   0.199   2.683   3.583
  242PC      C110610   0.322   2.695   3.509
  242PC      HR10611   0.305   2.751   3.415
  242PC      HS10612   0.385   2.762   3.569
  242PC      C210613   0.404   2.565   3.472
  242PC      HX10614   0.485   2.589   3.403
  242PC      C310615   0.319   2.460   3.399
  242PC      HA10616   0.265   2.515   3.318
  242PC      HB10617   0.388   2.387   3.351
  242PC     O3110618   0.228   2.400   3.490
  242PC     P3110619   0.162   2.260   3.454
  242PC     O3210620   0.132   2.274   3.298
  242PC     C3110621   0.149   2.154   3.223
  242PC     H1A10622   0.258   2.136   3.205
  242PC     H1B10623   0.109   2.064   3.276
  242PC     C3210624   0.075   2.162   3.088
  242PC     H2A10625   0.116   2.248   3.034
  242PC     H2B10626   0.106   2.075   3.030
  242PC     N3110627  -0.076   2.169   3.098
  242PC     C3310628  -0.144   2.071   3.181
  242PC     H3A10629  -0.156   1.989   3.112
  242PC     H3B10630  -0.085   2.046   3.268
  242PC     H3C10631  -0.245   2.100   3.207
  242PC     C3410632  -0.121   2.302   3.148
  242PC     H4A10633  -0.097   2.385   3.081
  242PC     H4B10634  -0.227   2.302   3.168
  242PC     H4C10635  -0.068   2.322   3.241
  242PC     C3510636  -0.135   2.135   2.971
  242PC     H5A10637  -0.137   2.234   2.932
  242PC     H5B10638  -0.240   2.108   2.971
  242PC     H5C10639  -0.075   2.070   2.908
  242PC     O3310640   0.264   2.154   3.472
  242PC     O3410641   0.033   2.250   3.525
  242PC     O2110642   0.467   2.521   3.591
  242PC     C2110643   0.528   2.412   3.606
  242PC     O2210644   0.561   2.333   3.520
  243OL     C1210645   0.570   2.403   3.754
  243OL     H2R10646   0.574   2.503   3.801
  243OL     H2S10647   0.670   2.358   3.762
  243OL     C1310648   0.462   2.325   3.830
  243OL     H3R10649   0.440   2.237   3.769
  243OL     H3S10650   0.365   2.376   3.822
  243OL     C1410651   0.501   2.305   3.977
  243OL     H4R10652   0.571   2.386   4.006
  243OL     H4S10653   0.553   2.211   3.997
  243OL     C1510654   0.386   2.308   4.077
  243OL     H5R10655   0.429   2.289   4.178
  243OL     H5S10656   0.312   2.228   4.056
  243OL     C1610657   0.316   2.443   4.082
  243OL     H6R10658   0.272   2.468   3.983
  243OL     H6S10659   0.388   2.524   4.108
  243OL     C1710660   0.205   2.432   4.186
  243OL     H7R10661   0.247   2.384   4.277
  243OL     H7S10662   0.130   2.362   4.144
  243OL     C1810663   0.138   2.564   4.222
  243OL     H8R10664   0.040   2.540   4.270
  243OL     H8S10665   0.117   2.622   4.129
  243OL     C1910666   0.225   2.646   4.312
  243OL     H9R10667   0.309   2.696   4.261
  243OL    C11010668   0.217   2.653   4.445
  243OL    H10R10669   0.286   2.724   4.492
  243OL    C11110670   0.123   2.584   4.541
  243OL    H11R10671   0.167   2.584   4.643
  243OL    H11S10672   0.109   2.477   4.513
  243OL    C11210673  -0.015   2.652   4.540
  243OL    H12R10674  -0.049   2.650   4.434
  243OL    H12S10675  -0.006   2.759   4.570
  243OL    C11310676  -0.126   2.578   4.617
  243OL    H13R10677  -0.104   2.469   4.619
  243OL    H13S10678  -0.222   2.598   4.566
  243OL    C11410679  -0.153   2.620   4.759
  243OL    H14R10680  -0.231   2.559   4.809
  243OL    H14S10681  -0.186   2.727   4.761
  243OL    C11510682  -0.030   2.605   4.843
  243OL    H15R10683   0.032   2.675   4.787
  243OL    H15S10684   0.031   2.514   4.847
  243OL    C11610685  -0.073   2.646   4.979
  243OL    H16R10686  -0.163   2.708   4.965
  243OL    H16S10687  -0.006   2.724   5.006
  243OL    C11710688  -0.087   2.528   5.077
  243OL    H17R10689  -0.140   2.449   5.021
  243OL    H17S10690  -0.154   2.544   5.163
  243OL    C11810691   0.041   2.475   5.142
  243OL    H18R10692   0.118   2.446   5.070
  243OL    H18S10693   0.015   2.398   5.217
  243OL    H18T10694   0.095   2.549   5.201
  244PA    C11610695   0.456   1.460   5.095
  244PA    H16R10696   0.382   1.384   5.128
  244PA    H16S10697   0.408   1.545   5.044
  244PA    H16T10698   0.510   1.497   5.185
  244PA    C11510699   0.560   1.398   5.005
  244PA    H15R10700   0.642   1.472   4.989
  244PA    H15S10701   0.600   1.312   5.058
  244PA    C11410702   0.514   1.340   4.873
  244PA    H14R10703   0.590   1.276   4.825
  244PA    H14S10704   0.427   1.275   4.885
  244PA    C11310705   0.503   1.449   4.770
  244PA    H13R10706   0.428   1.523   4.805
  244PA    H13S10707   0.604   1.496   4.770
  244PA    C11210708   0.468   1.388   4.635
  244PA    H12R10709   0.550   1.320   4.601
  244PA    H12S10710   0.376   1.328   4.648
  244PA    C11110711   0.446   1.497   4.531
  244PA    H11R10712   0.397   1.584   4.580
  244PA    H11S10713   0.545   1.528   4.492
  244PA    C11010714   0.370   1.460   4.405
  244PA    H10R10715   0.431   1.386   4.348
  244PA    H10S10716   0.274   1.413   4.433
  244PA     C1910717   0.344   1.589   4.327
  244PA     H9R10718   0.271   1.651   4.385
  244PA     H9S10719   0.438   1.647   4.318
  244PA     C1810720   0.283   1.578   4.189
  244PA     H8R10721   0.216   1.489   4.179
  244PA     H8S10722   0.225   1.670   4.165
  244PA     C1710723   0.389   1.574   4.085
  244PA     H7R10724   0.352   1.628   3.994
  244PA     H7S10725   0.488   1.616   4.110
  244PA     C1610726   0.417   1.434   4.055
  244PA     H6R10727   0.465   1.370   4.132
  244PA     H6S10728   0.319   1.386   4.024
  244PA     C1510729   0.506   1.455   3.939
  244PA     H5R10730   0.469   1.356   3.916
  244PA     H5S10731   0.466   1.528   3.865
  244PA     C1410732   0.660   1.466   3.953
  244PA     H4R10733   0.671   1.573   3.979
  244PA     H4S10734   0.687   1.414   4.045
  244PA     C1310735   0.759   1.451   3.825
  244PA     H3R10736   0.709   1.521   3.763
  244PA     H3S10737   0.832   1.522   3.860
  244PA     C1210738   0.846   1.324   3.741
  244PA     H2R10739   0.901   1.344   3.652
  244PA     H2S10740   0.931   1.326   3.807
  245PC     C1110741   0.826   1.163   3.693
  245PC     O1210742   0.871   1.058   3.738
  245PC     O1110743   0.735   1.162   3.598
  245PC      C110744   0.676   1.043   3.552
  245PC      HR10745   0.711   1.036   3.450
  245PC      HS10746   0.720   0.960   3.604
  245PC      C210747   0.517   1.040   3.534
  245PC      HX10748   0.482   0.945   3.493
  245PC      C310749   0.483   1.139   3.421
  245PC      HA10750   0.553   1.106   3.341
  245PC      HB10751   0.378   1.109   3.397
  245PC     O3110752   0.499   1.280   3.439
  245PC     P3110753   0.444   1.367   3.319
  245PC     O3210754   0.295   1.331   3.354
  245PC     C3110755   0.204   1.436   3.337
  245PC     H1A10756   0.108   1.409   3.385
  245PC     H1B10757   0.236   1.532   3.385
  245PC     C3210758   0.195   1.450   3.186
  245PC     H2A10759   0.130   1.532   3.164
  245PC     H2B10760   0.295   1.481   3.154
  245PC     N3110761   0.154   1.326   3.106
  245PC     C3310762   0.026   1.271   3.156
  245PC     H3A10763  -0.013   1.197   3.088
  245PC     H3B10764   0.041   1.227   3.255
  245PC     H3C10765  -0.045   1.351   3.166
  245PC     C3410766   0.138   1.378   2.970
  245PC     H4A10767   0.090   1.475   2.973
  245PC     H4B10768   0.237   1.389   2.926
  245PC     H4C10769   0.081   1.307   2.911
  245PC     C3510770   0.257   1.218   3.104
  245PC     H5A10771   0.237   1.136   3.038
  245PC     H5B10772   0.276   1.185   3.207
  245PC     H5C10773   0.357   1.259   3.078
  245PC     O3310774   0.457   1.515   3.321
  245PC     O3410775   0.495   1.305   3.196
  245PC     O2110776   0.455   1.051   3.663
  245PC     C2110777   0.327   1.037   3.683
  245PC     O2210778   0.249   0.981   3.608
  246OL     C1210779   0.285   1.118   3.808
  246OL     H2R10780   0.277   1.223   3.776
  246OL     H2S10781   0.348   1.114   3.898
  246OL     C1310782   0.160   1.065   3.875
  246OL     H3R10783   0.191   1.001   3.961
  246OL     H3S10784   0.105   1.001   3.803
  246OL     C1410785   0.074   1.182   3.918
  246OL     H4R10786  -0.030   1.156   3.887
  246OL     H4S10787   0.101   1.275   3.863
  246OL     C1510788   0.082   1.213   4.067
  246OL     H5R10789   0.018   1.302   4.087
  246OL     H5S10790   0.186   1.231   4.101
  246OL     C1610791   0.026   1.101   4.150
  246OL     H6R10792   0.089   1.009   4.156
  246OL     H6S10793  -0.060   1.072   4.088
  246OL     C1710794  -0.010   1.151   4.291
  246OL     H7R10795  -0.050   1.070   4.351
  246OL     H7S10796  -0.086   1.231   4.289
  246OL     C1810797   0.116   1.194   4.363
  246OL     H8R10798   0.155   1.286   4.317
  246OL     H8S10799   0.188   1.113   4.334
  246OL     C1910800   0.099   1.212   4.512
  246OL     H9R10801   0.043   1.300   4.546
  246OL    C11010802   0.145   1.125   4.600
  246OL    H10R10803   0.137   1.140   4.709
  246OL    C11110804   0.216   1.003   4.554
  246OL    H11R10805   0.280   1.018   4.466
  246OL    H11S10806   0.143   0.924   4.525
  246OL    C11210807   0.301   0.945   4.663
  246OL    H12R10808   0.344   0.859   4.607
  246OL    H12S10809   0.222   0.916   4.733
  246OL    C11310810   0.420   1.010   4.738
  246OL    H13R10811   0.385   1.099   4.793
  246OL    H13S10812   0.493   1.036   4.660
  246OL    C11410813   0.496   0.922   4.839
  246OL    H14R10814   0.559   0.844   4.789
  246OL    H14S10815   0.438   0.873   4.921
  246OL    C11510816   0.584   0.987   4.934
  246OL    H15R10817   0.521   1.021   5.016
  246OL    H15S10818   0.613   1.083   4.891
  246OL    C11610819   0.690   0.878   4.960
  246OL    H16R10820   0.759   0.852   4.879
  246OL    H16S10821   0.644   0.784   5.003
  246OL    C11710822   0.784   0.920   5.059
  246OL    H17R10823   0.704   0.971   5.112
  246OL    H17S10824   0.848   1.003   5.070
  246OL    C11810825   0.831   0.820   5.146
  246OL    H18R10826   0.900   0.737   5.132
  246OL    H18S10827   0.741   0.809   5.202
  246OL    H18T10828   0.881   0.882   5.211
  247PA    C11610829   4.869   0.485   5.261
  247PA    H16R10830   4.785   0.459   5.195
  247PA    H16S10831   4.922   0.551   5.194
  247PA    H16T10832   4.831   0.555   5.340
  247PA    C11510833   4.935   0.357   5.316
  247PA    H15R10834   5.021   0.337   5.377
  247PA    H15S10835   4.888   0.341   5.410
  247PA    C11410836   4.950   0.237   5.229
  247PA    H14R10837   4.978   0.148   5.293
  247PA    H14S10838   4.869   0.204   5.162
  247PA    C11310839   5.069   0.263   5.160
  247PA    H13R10840   5.041   0.345   5.090
  247PA    H13S10841   5.145   0.298   5.235
  247PA    C11210842   5.098   0.129   5.103
  247PA    H12R10843   5.076   0.042   5.169
  247PA    H12S10844   5.034   0.118   5.013
  247PA    C11110845   5.244   0.138   5.080
  247PA    H11R10846   5.296   0.158   5.177
  247PA    H11S10847   5.274   0.040   5.041
  247PA    C11010848   5.266   0.250   4.979
  247PA    H10R10849   5.171   0.263   4.921
  247PA    H10S10850   5.288   0.347   5.028
  247PA     C1910851   5.376   0.205   4.886
  247PA     H9R10852   5.471   0.210   4.942
  247PA     H9S10853   5.357   0.098   4.861
  247PA     C1810854   5.386   0.289   4.759
  247PA     H8R10855   5.370   0.397   4.777
  247PA     H8S10856   5.486   0.270   4.716
  247PA     C1710857   5.290   0.244   4.650
  247PA     H7R10858   5.304   0.134   4.655
  247PA     H7S10859   5.188   0.277   4.675
  247PA     C1610860   5.323   0.302   4.513
  247PA     H6R10861   5.321   0.411   4.524
  247PA     H6S10862   5.425   0.265   4.487
  247PA     C1510863   5.223   0.288   4.398
  247PA     H5R10864   5.223   0.186   4.383
  247PA     H5S10865   5.117   0.305   4.413
  247PA     C1410866   5.274   0.295   4.256
  247PA     H4R10867   5.322   0.388   4.227
  247PA     H4S10868   5.368   0.241   4.278
  247PA     C1310869   5.170   0.228   4.159
  247PA     H3R10870   5.136   0.127   4.187
  247PA     H3S10871   5.077   0.286   4.171
  247PA     C1210872   5.208   0.208   4.010
  247PA     H2R10873   5.262   0.290   3.963
  247PA     H2S10874   5.283   0.134   3.999
  248PC     C1110875   5.107   0.140   3.919
  248PC     O1210876   5.014   0.068   3.951
  248PC     O1110877   5.144   0.176   3.801
  248PC      C110878   5.040   0.184   3.705
  248PC      HR10879   5.042   0.096   3.639
  248PC      HS10880   4.940   0.182   3.753
  248PC      C210881   5.064   0.316   3.631
  248PC      HX10882   4.978   0.335   3.563
  248PC      C310883   5.191   0.315   3.542
  248PC      HA10884   5.271   0.258   3.594
  248PC      HB10885   5.167   0.263   3.448
  248PC     O3110886   5.238   0.448   3.520
  248PC     P3110887   5.159   0.550   3.428
  248PC     O3210888   5.282   0.634   3.372
  248PC     C3110889   5.403   0.569   3.336
  248PC     H1A10890   5.480   0.647   3.326
  248PC     H1B10891   5.440   0.501   3.417
  248PC     C3210892   5.389   0.488   3.204
  248PC     H2A10893   5.477   0.426   3.193
  248PC     H2B10894   5.303   0.423   3.218
  248PC     N3110895   5.370   0.568   3.076
  248PC     C3310896   5.484   0.662   3.060
  248PC     H3A10897   5.471   0.749   3.124
  248PC     H3B10898   5.576   0.612   3.086
  248PC     H3C10899   5.492   0.696   2.957
  248PC     C3410900   5.370   0.482   2.954
  248PC     H4A10901   5.368   0.544   2.865
  248PC     H4B10902   5.463   0.426   2.950
  248PC     H4C10903   5.287   0.414   2.950
  248PC     C3510904   5.242   0.644   3.089
  248PC     H5A10905   5.163   0.578   3.126
  248PC     H5B10906   5.210   0.694   3.000
  248PC     H5C10907   5.250   0.719   3.169
  248PC     O3310908   5.108   0.478   3.308
  248PC     O3410909   5.068   0.640   3.503
  248PC     O2110910   5.080   0.426   3.723
  248PC     C2110911   4.975   0.448   3.791
  248PC     O2210912   4.869   0.390   3.790
  249OL     C1210913   4.998   0.550   3.897
  249OL     H2R10914   4.923   0.511   3.966
  249OL     H2S10915   4.960   0.647   3.864
  249OL     C1310916   5.130   0.548   3.975
  249OL     H3R10917   5.160   0.444   3.988
  249OL     H3S10918   5.114   0.587   4.077
  249OL     C1410919   5.241   0.622   3.901
  249OL     H4R10920   5.256   0.571   3.803
  249OL     H4S10921   5.335   0.618   3.959
  249OL     C1510922   5.206   0.766   3.868
  249OL     H5R10923   5.112   0.757   3.810
  249OL     H5S10924   5.276   0.813   3.796
  249OL     C1610925   5.193   0.857   3.991
  249OL     H6R10926   5.098   0.837   4.044
  249OL     H6S10927   5.195   0.964   3.959
  249OL     C1710928   5.294   0.831   4.099
  249OL     H7R10929   5.394   0.826   4.049
  249OL     H7S10930   5.276   0.737   4.154
  249OL     C1810931   5.299   0.949   4.194
  249OL     H8R10932   5.292   1.040   4.132
  249OL     H8S10933   5.403   0.932   4.229
  249OL     C1910934   5.222   0.994   4.312
  249OL     H9R10935   5.133   1.056   4.294
  249OL    C11010936   5.265   0.968   4.436
  249OL    H10R10937   5.208   1.011   4.520
  249OL    C11110938   5.390   0.891   4.476
  249OL    H11R10939   5.455   0.956   4.537
  249OL    H11S10940   5.443   0.835   4.396
  249OL    C11210941   5.336   0.780   4.558
  249OL    H12R10942   5.264   0.718   4.500
  249OL    H12S10943   5.298   0.846   4.642
  249OL    C11310944   5.407   0.682   4.640
  249OL    H13R10945   5.470   0.620   4.575
  249OL    H13S10946   5.340   0.614   4.700
  249OL    C11410947   5.477   0.768   4.735
  249OL    H14R10948   5.539   0.848   4.691
  249OL    H14S10949   5.536   0.685   4.774
  249OL    C11510950   5.400   0.819   4.855
  249OL    H15R10951   5.309   0.875   4.839
  249OL    H15S10952   5.454   0.905   4.902
  249OL    C11610953   5.401   0.702   4.951
  249OL    H16R10954   5.502   0.663   4.975
  249OL    H16S10955   5.371   0.601   4.921
  249OL    C11710956   5.355   0.751   5.077
  249OL    H17R10957   5.246   0.734   5.083
  249OL    H17S10958   5.372   0.858   5.106
  249OL    C11810959   5.429   0.652   5.158
  249OL    H18R10960   5.513   0.658   5.230
  249OL    H18S10961   5.406   0.548   5.132
  249OL    H18T10962   5.362   0.706   5.222
  250PA    C11610963   2.578   5.707   5.296
  250PA    H16R10964   2.581   5.727   5.406
  250PA    H16S10965   2.614   5.774   5.216
  250PA    H16T10966   2.683   5.680   5.308
  250PA    C11510967   2.479   5.594   5.249
  250PA    H15R10968   2.499   5.499   5.304
  250PA    H15S10969   2.379   5.620   5.286
  250PA    C11410970   2.464   5.562   5.096
  250PA    H14R10971   2.458   5.659   5.044
  250PA    H14S10972   2.558   5.532   5.048
  250PA    C11310973   2.350   5.456   5.059
  250PA    H13R10974   2.331   5.384   5.141
  250PA    H13S10975   2.261   5.512   5.024
  250PA    C11210976   2.383   5.362   4.941
  250PA    H12R10977   2.435   5.442   4.886
  250PA    H12S10978   2.449   5.283   4.980
  250PA    C11110979   2.304   5.254   4.859
  250PA    H11R10980   2.347   5.153   4.882
  250PA    H11S10981   2.200   5.255   4.894
  250PA    C11010982   2.311   5.256   4.703
  250PA    H10R10983   2.408   5.232   4.654
  250PA    H10S10984   2.248   5.172   4.666
  250PA     C1910985   2.267   5.392   4.653
  250PA     H9R10986   2.182   5.416   4.719
  250PA     H9S10987   2.343   5.471   4.670
  250PA     C1810988   2.222   5.392   4.507
  250PA     H8R10989   2.312   5.399   4.442
  250PA     H8S10990   2.171   5.296   4.486
  250PA     C1710991   2.122   5.505   4.481
  250PA     H7R10992   2.035   5.491   4.550
  250PA     H7S10993   2.168   5.603   4.505
  250PA     C1610994   2.068   5.506   4.338
  250PA     H6R10995   2.008   5.414   4.320
  250PA     H6S10996   2.000   5.594   4.327
  250PA     C1510997   2.182   5.514   4.238
  250PA     H5R10998   2.254   5.591   4.273
  250PA     H5S10999   2.235   5.416   4.234
  250PA     C1411000   2.137   5.550   4.097
  250PA     H4R11001   2.056   5.483   4.061
  250PA     H4S11002   2.099   5.654   4.096
  250PA     C1311003   2.254   5.541   3.999
  250PA     H3R11004   2.343   5.589   4.047
  250PA     H3S11005   2.280   5.435   3.978
  250PA     C1211006   2.215   5.618   3.872
  250PA     H2R11007   2.129   5.571   3.820
  250PA     H2S11008   2.190   5.722   3.903
  251PC     C1111009   2.333   5.628   3.781
  251PC     O1211010   2.436   5.675   3.820
  251PC     O1111011   2.312   5.579   3.659
  251PC      C111012   2.433   5.559   3.581
  251PC      HR11013   2.446   5.639   3.506
  251PC      HS11014   2.527   5.555   3.642
  251PC      C211015   2.421   5.422   3.510
  251PC      HX11016   2.512   5.401   3.449
  251PC      C311017   2.302   5.417   3.412
  251PC      HA11018   2.220   5.482   3.451
  251PC      HB11019   2.336   5.455   3.313
  251PC     O3111020   2.254   5.284   3.403
  251PC     P3111021   2.187   5.218   3.279
  251PC     O3211022   2.089   5.332   3.229
  251PC     C3111023   1.974   5.369   3.302
  251PC     H1A11024   1.897   5.288   3.293
  251PC     H1B11025   1.994   5.386   3.410
  251PC     C3211026   1.922   5.498   3.238
  251PC     H2A11027   1.906   5.468   3.134
  251PC     H2B11028   1.819   5.516   3.269
  251PC     N3111029   2.006   5.628   3.252
  251PC     C3311030   2.150   5.616   3.208
  251PC     H3A11031   2.213   5.698   3.238
  251PC     H3B11032   2.188   5.518   3.236
  251PC     H3C11033   2.158   5.619   3.100
  251PC     C3411034   1.945   5.737   3.178
  251PC     H4A11035   2.009   5.824   3.162
  251PC     H4B11036   1.912   5.702   3.081
  251PC     H4C11037   1.853   5.775   3.225
  251PC     C3511038   2.000   5.678   3.392
  251PC     H5A11039   2.053   5.773   3.400
  251PC     H5B11040   2.041   5.604   3.460
  251PC     H5C11041   1.898   5.703   3.418
  251PC     O3311042   2.289   5.199   3.173
  251PC     O3411043   2.113   5.099   3.328
  251PC     O2111044   2.401   5.320   3.609
  251PC     C2111045   2.508   5.293   3.676
  251PC     O2211046   2.619   5.336   3.647
  252OL     C1211047   2.471   5.197   3.789
  252OL     H2R11048   2.499   5.239   3.887
  252OL     H2S11049   2.525   5.101   3.777
  252OL     C1311050   2.324   5.164   3.797
  252OL     H3R11051   2.300   5.101   3.707
  252OL     H3S11052   2.263   5.256   3.798
  252OL     C1411053   2.304   5.085   3.924
  252OL     H4R11054   2.333   5.146   4.013
  252OL     H4S11055   2.379   5.004   3.915
  252OL     C1511056   2.160   5.035   3.940
  252OL     H5R11057   2.136   4.966   3.856
  252OL     H5S11058   2.096   5.125   3.929
  252OL     C1611059   2.129   4.969   4.076
  252OL     H6R11060   2.183   5.025   4.156
  252OL     H6S11061   2.161   4.863   4.078
  252OL     C1711062   1.981   4.960   4.110
  252OL     H7R11063   1.939   4.876   4.049
  252OL     H7S11064   1.936   5.056   4.078
  252OL     C1811065   1.956   4.936   4.261
  252OL     H8R11066   2.026   5.002   4.317
  252OL     H8S11067   1.982   4.832   4.289
  252OL     C1911068   1.813   4.967   4.295
  252OL     H9R11069   1.739   4.930   4.222
  252OL    C11011070   1.772   5.038   4.402
  252OL    H10R11071   1.665   5.061   4.416
  252OL    C11111072   1.868   5.096   4.503
  252OL    H11R11073   1.929   5.176   4.454
  252OL    H11S11074   1.938   5.017   4.537
  252OL    C11211075   1.810   5.155   4.631
  252OL    H12R11076   1.753   5.078   4.687
  252OL    H12S11077   1.740   5.240   4.610
  252OL    C11311078   1.922   5.207   4.720
  252OL    H13R11079   1.978   5.289   4.671
  252OL    H13S11080   1.995   5.127   4.747
  252OL    C11411081   1.860   5.258   4.847
  252OL    H14R11082   1.925   5.241   4.936
  252OL    H14S11083   1.764   5.206   4.866
  252OL    C11511084   1.836   5.407   4.834
  252OL    H15R11085   1.817   5.420   4.938
  252OL    H15S11086   1.747   5.438   4.774
  252OL    C11611087   1.951   5.503   4.851
  252OL    H16R11088   2.019   5.491   4.767
  252OL    H16S11089   2.003   5.481   4.948
  252OL    C11711090   1.908   5.648   4.857
  252OL    H17R11091   1.817   5.669   4.917
  252OL    H17S11092   1.879   5.660   4.751
  252OL    C11811093   2.026   5.735   4.906
  252OL    H18R11094   2.025   5.743   5.016
  252OL    H18S11095   2.025   5.840   4.870
  252OL    H18T11096   2.121   5.690   4.872
  253PA    C11611097   0.199   3.671   4.999
  253PA    H16R11098   0.227   3.779   5.004
  253PA    H16S11099   0.281   3.612   5.043
  253PA    H16T11100   0.105   3.650   5.056
  253PA    C11511101   0.158   3.640   4.864
  253PA    H15R11102   0.186   3.536   4.847
  253PA    H15S11103   0.047   3.653   4.853
  253PA    C11411104   0.226   3.735   4.772
  253PA    H14R11105   0.192   3.840   4.790
  253PA    H14S11106   0.334   3.735   4.790
  253PA    C11311107   0.189   3.687   4.637
  253PA    H13R11108   0.218   3.580   4.625
  253PA    H13S11109   0.077   3.692   4.634
  253PA    C11211110   0.248   3.775   4.530
  253PA    H12R11111   0.246   3.880   4.566
  253PA    H12S11112   0.355   3.747   4.515
  253PA    C11111113   0.157   3.757   4.408
  253PA    H11R11114   0.178   3.658   4.364
  253PA    H11S11115   0.053   3.759   4.445
  253PA    C11011116   0.159   3.868   4.303
  253PA    H10R11117   0.069   3.869   4.239
  253PA    H10S11118   0.174   3.967   4.353
  253PA     C1911119   0.274   3.848   4.211
  253PA     H9R11120   0.296   3.944   4.159
  253PA     H9S11121   0.348   3.834   4.294
  253PA     C1811122   0.280   3.729   4.108
  253PA     H8R11123   0.331   3.641   4.153
  253PA     H8S11124   0.174   3.701   4.093
  253PA     C1711125   0.341   3.755   3.964
  253PA     H7R11126   0.302   3.680   3.895
  253PA     H7S11127   0.309   3.856   3.930
  253PA     C1611128   0.493   3.741   3.927
  253PA     H6R11129   0.509   3.762   3.821
  253PA     H6S11130   0.551   3.826   3.953
  253PA     C1511131   0.574   3.622   3.980
  253PA     H5R11132   0.678   3.657   3.988
  253PA     H5S11133   0.561   3.578   4.079
  253PA     C1411134   0.541   3.499   3.903
  253PA     H4R11135   0.619   3.423   3.925
  253PA     H4S11136   0.442   3.473   3.947
  253PA     C1311137   0.505   3.517   3.761
  253PA     H3R11138   0.430   3.596   3.747
  253PA     H3S11139   0.581   3.563   3.701
  253PA     C1211140   0.473   3.382   3.699
  253PA     H2R11141   0.559   3.311   3.699
  253PA     H2S11142   0.396   3.330   3.753
  254PC     C1111143   0.432   3.422   3.562
  254PC     O1211144   0.424   3.538   3.522
  254PC     O1111145   0.406   3.317   3.488
  254PC      C111146   0.314   3.355   3.384
  254PC      HR11147   0.335   3.455   3.336
  254PC      HS11148   0.321   3.281   3.304
  254PC      C211149   0.169   3.349   3.437
  254PC      HX11150   0.150   3.243   3.466
  254PC      C311151   0.070   3.394   3.328
  254PC      HA11152   0.093   3.341   3.233
  254PC      HB11153  -0.033   3.366   3.359
  254PC     O3111154   0.083   3.536   3.312
  254PC     P3111155  -0.000   3.606   3.199
  254PC     O3211156   0.025   3.760   3.224
  254PC     C3111157   0.037   3.818   3.353
  254PC     H1A11158  -0.001   3.923   3.347
  254PC     H1B11159  -0.025   3.766   3.430
  254PC     C3211160   0.184   3.826   3.394
  254PC     H2A11161   0.193   3.886   3.484
  254PC     H2B11162   0.217   3.726   3.421
  254PC     N3111163   0.278   3.883   3.289
  254PC     C3311164   0.222   4.002   3.221
  254PC     H3A11165   0.294   4.046   3.153
  254PC     H3B11166   0.138   3.968   3.162
  254PC     H3C11167   0.191   4.078   3.291
  254PC     C3411168   0.404   3.917   3.350
  254PC     H4A11169   0.399   3.990   3.429
  254PC     H4B11170   0.441   3.823   3.396
  254PC     H4C11171   0.482   3.944   3.278
  254PC     C3511172   0.311   3.778   3.186
  254PC     H5A11173   0.359   3.692   3.231
  254PC     H5B11174   0.377   3.820   3.112
  254PC     H5C11175   0.219   3.745   3.139
  254PC     O3311176   0.061   3.573   3.069
  254PC     O3411177  -0.144   3.581   3.220
  254PC     O2111178   0.159   3.433   3.552
  254PC     C2111179   0.045   3.426   3.617
  254PC     O2211180  -0.040   3.339   3.607
  255OL     C1211181   0.042   3.543   3.714
  255OL     H2R11182  -0.061   3.564   3.746
  255OL     H2S11183   0.083   3.633   3.662
  255OL     C1311184   0.130   3.510   3.834
  255OL     H3R11185   0.131   3.598   3.900
  255OL     H3S11186   0.235   3.489   3.801
  255OL     C1411187   0.078   3.393   3.918
  255OL     H4R11188   0.083   3.300   3.857
  255OL     H4S11189  -0.027   3.410   3.949
  255OL     C1511190   0.163   3.380   4.043
  255OL     H5R11191   0.166   3.474   4.101
  255OL     H5S11192   0.265   3.373   4.000
  255OL     C1611193   0.119   3.264   4.137
  255OL     H6R11194   0.120   3.169   4.082
  255OL     H6S11195   0.015   3.277   4.170
  255OL     C1711196   0.207   3.243   4.262
  255OL     H7R11197   0.311   3.231   4.239
  255OL     H7S11198   0.191   3.144   4.311
  255OL     C1811199   0.232   3.372   4.340
  255OL     H8R11200   0.134   3.420   4.350
  255OL     H8S11201   0.298   3.436   4.278
  255OL     C1911202   0.306   3.339   4.465
  255OL     H9R11203   0.408   3.373   4.480
  255OL    C11011204   0.248   3.302   4.573
  255OL    H10R11205   0.305   3.253   4.654
  255OL    C11111206   0.103   3.296   4.568
  255OL    H11R11207   0.058   3.234   4.486
  255OL    H11S11208   0.059   3.398   4.570
  255OL    C11211209   0.088   3.233   4.699
  255OL    H12R11210   0.091   3.123   4.688
  255OL    H12S11211  -0.016   3.267   4.704
  255OL    C11311212   0.143   3.302   4.827
  255OL    H13R11213   0.070   3.382   4.853
  255OL    H13S11214   0.245   3.341   4.819
  255OL    C11411215   0.167   3.213   4.944
  255OL    H14R11216   0.126   3.121   4.980
  255OL    H14S11217   0.082   3.166   4.901
  255OL    C11511218   0.162   3.269   5.077
  255OL    H15R11219   0.132   3.184   5.148
  255OL    H15S11220   0.110   3.367   5.082
  255OL    C11611221   0.283   3.303   5.137
  255OL    H16R11222   0.322   3.379   5.066
  255OL    H16S11223   0.336   3.205   5.140
  255OL    C11711224   0.270   3.346   5.280
  255OL    H17R11225   0.243   3.251   5.329
  255OL    H17S11226   0.200   3.431   5.298
  255OL    C11811227   0.404   3.373   5.336
  255OL    H18R11228   0.444   3.460   5.278
  255OL    H18S11229   0.459   3.279   5.313
  255OL    H18T11230   0.411   3.392   5.444
  256PA    C11611231   0.462   4.226   5.074
  256PA    H16R11232   0.452   4.175   4.976
  256PA    H16S11233   0.370   4.205   5.132
  256PA    H16T11234   0.548   4.180   5.128
  256PA    C11511235   0.482   4.377   5.054
  256PA    H15R11236   0.407   4.413   4.980
  256PA    H15S11237   0.464   4.439   5.142
  256PA    C11411238   0.624   4.420   5.021
  256PA    H14R11239   0.626   4.531   5.009
  256PA    H14S11240   0.696   4.394   5.101
  256PA    C11311241   0.673   4.348   4.899
  256PA    H13R11242   0.677   4.238   4.914
  256PA    H13S11243   0.600   4.370   4.818
  256PA    C11211244   0.810   4.397   4.858
  256PA    H12R11245   0.825   4.502   4.893
  256PA    H12S11246   0.890   4.335   4.905
  256PA    C11111247   0.815   4.389   4.707
  256PA    H11R11248   0.785   4.286   4.675
  256PA    H11S11249   0.739   4.460   4.667
  256PA    C11011250   0.951   4.423   4.652
  256PA    H10R11251   1.026   4.350   4.691
  256PA    H10S11252   0.951   4.415   4.541
  256PA     C1911253   0.997   4.562   4.694
  256PA     H9R11254   1.020   4.565   4.802
  256PA     H9S11255   1.093   4.569   4.638
  256PA     C1811256   0.905   4.681   4.659
  256PA     H8R11257   0.806   4.669   4.706
  256PA     H8S11258   0.951   4.774   4.701
  256PA     C1711259   0.886   4.704   4.510
  256PA     H7R11260   0.987   4.711   4.466
  256PA     H7S11261   0.838   4.617   4.461
  256PA     C1611262   0.812   4.834   4.477
  256PA     H6R11263   0.712   4.834   4.524
  256PA     H6S11264   0.871   4.919   4.520
  256PA     C1511265   0.800   4.853   4.326
  256PA     H5R11266   0.781   4.960   4.300
  256PA     H5S11267   0.897   4.824   4.281
  256PA     C1411268   0.690   4.766   4.264
  256PA     H4R11269   0.679   4.673   4.324
  256PA     H4S11270   0.591   4.818   4.270
  256PA     C1311271   0.722   4.723   4.120
  256PA     H3R11272   0.800   4.644   4.126
  256PA     H3S11273   0.630   4.677   4.077
  256PA     C1211274   0.773   4.833   4.025
  256PA     H2R11275   0.708   4.923   4.026
  256PA     H2S11276   0.876   4.864   4.051
  257PC     C1111277   0.774   4.783   3.881
  257PC     O1211278   0.724   4.841   3.787
  257PC     O1111279   0.836   4.664   3.875
  257PC      C111280   0.838   4.600   3.745
  257PC      HR11281   0.853   4.672   3.661
  257PC      HS11282   0.925   4.531   3.744
  257PC      C211283   0.711   4.515   3.719
  257PC      HX11284   0.689   4.461   3.814
  257PC      C311285   0.738   4.405   3.610
  257PC      HA11286   0.845   4.374   3.617
  257PC      HB11287   0.679   4.316   3.639
  257PC     O3111288   0.699   4.442   3.477
  257PC     P3111289   0.807   4.483   3.368
  257PC     O3211290   0.713   4.529   3.250
  257PC     C3111291   0.642   4.652   3.259
  257PC     H1A11292   0.584   4.661   3.355
  257PC     H1B11293   0.713   4.737   3.254
  257PC     C3211294   0.546   4.657   3.139
  257PC     H2A11295   0.521   4.759   3.115
  257PC     H2B11296   0.607   4.618   3.057
  257PC     N3111297   0.420   4.574   3.150
  257PC     C3311298   0.458   4.433   3.184
  257PC     H3A11299   0.529   4.396   3.110
  257PC     H3B11300   0.510   4.432   3.279
  257PC     H3C11301   0.371   4.369   3.192
  257PC     C3411302   0.331   4.624   3.261
  257PC     H4A11303   0.244   4.562   3.281
  257PC     H4B11304   0.390   4.629   3.353
  257PC     H4C11305   0.294   4.724   3.243
  257PC     C3511306   0.352   4.573   3.017
  257PC     H5A11307   0.424   4.552   2.938
  257PC     H5B11308   0.304   4.668   2.998
  257PC     H5C11309   0.277   4.495   3.011
  257PC     O3311310   0.885   4.599   3.416
  257PC     O3411311   0.883   4.363   3.327
  257PC     O2111312   0.602   4.604   3.687
  257PC     C2111313   0.483   4.552   3.671
  257PC     O2211314   0.452   4.434   3.680
  258OL     C1211315   0.380   4.665   3.654
  258OL     H2R11316   0.303   4.632   3.582
  258OL     H2S11317   0.429   4.756   3.613
  258OL     C1311318   0.312   4.696   3.790
  258OL     H3R11319   0.279   4.601   3.836
  258OL     H3S11320   0.220   4.757   3.773
  258OL     C1411321   0.409   4.773   3.882
  258OL     H4R11322   0.431   4.871   3.833
  258OL     H4S11323   0.504   4.716   3.888
  258OL     C1511324   0.363   4.801   4.027
  258OL     H5R11325   0.274   4.868   4.024
  258OL     H5S11326   0.445   4.857   4.077
  258OL     C1611327   0.333   4.677   4.113
  258OL     H6R11328   0.430   4.631   4.144
  258OL     H6S11329   0.278   4.602   4.053
  258OL     C1711330   0.250   4.707   4.239
  258OL     H7R11331   0.153   4.750   4.206
  258OL     H7S11332   0.299   4.784   4.302
  258OL     C1811333   0.215   4.581   4.322
  258OL     H8R11334   0.158   4.515   4.253
  258OL     H8S11335   0.143   4.611   4.402
  258OL     C1911336   0.330   4.499   4.376
  258OL     H9R11337   0.392   4.453   4.298
  258OL    C11011338   0.362   4.473   4.505
  258OL    H10R11339   0.450   4.410   4.527
  258OL    C11111340   0.289   4.522   4.628
  258OL    H11R11341   0.290   4.444   4.708
  258OL    H11S11342   0.182   4.543   4.606
  258OL    C11211343   0.353   4.650   4.682
  258OL    H12R11344   0.280   4.700   4.750
  258OL    H12S11345   0.374   4.720   4.598
  258OL    C11311346   0.483   4.623   4.760
  258OL    H13R11347   0.550   4.560   4.699
  258OL    H13S11348   0.458   4.569   4.853
  258OL    C11411349   0.562   4.749   4.794
  258OL    H14R11350   0.578   4.807   4.700
  258OL    H14S11351   0.661   4.724   4.838
  258OL    C11511352   0.493   4.840   4.892
  258OL    H15R11353   0.467   4.791   4.989
  258OL    H15S11354   0.396   4.869   4.844
  258OL    C11611355   0.585   4.958   4.920
  258OL    H16R11356   0.606   5.013   4.825
  258OL    H16S11357   0.681   4.930   4.968
  258OL    C11711358   0.515   5.053   5.009
  258OL    H17R11359   0.579   5.144   5.014
  258OL    H17S11360   0.496   5.017   5.113
  258OL    C11811361   0.384   5.086   4.946
  258OL    H18R11362   0.384   5.081   4.834
  258OL    H18S11363   0.383   5.189   4.975
  258OL    H18T11364   0.293   5.037   4.985
  259PA    C11611365   4.700   5.436   5.170
  259PA    H16R11366   4.775   5.514   5.145
  259PA    H16S11367   4.769   5.368   5.218
  259PA    H16T11368   4.635   5.455   5.257
  259PA    C11511369   4.614   5.399   5.050
  259PA    H15R11370   4.675   5.373   4.961
  259PA    H15S11371   4.547   5.313   5.072
  259PA    C11411372   4.529   5.515   5.010
  259PA    H14R11373   4.464   5.486   4.925
  259PA    H14S11374   4.468   5.546   5.097
  259PA    C11311375   4.621   5.629   4.974
  259PA    H13R11376   4.556   5.716   4.951
  259PA    H13S11377   4.689   5.661   5.054
  259PA    C11211378   4.712   5.595   4.859
  259PA    H12R11379   4.803   5.536   4.883
  259PA    H12S11380   4.656   5.539   4.781
  259PA    C11111381   4.757   5.729   4.813
  259PA    H11R11382   4.664   5.787   4.801
  259PA    H11S11383   4.822   5.784   4.883
  259PA    C11011384   4.819   5.709   4.683
  259PA    H10R11385   4.770   5.617   4.641
  259PA    H10S11386   4.826   5.797   4.615
  259PA     C1911387   4.951   5.662   4.674
  259PA     H9R11388   5.012   5.752   4.697
  259PA     H9S11389   4.961   5.577   4.743
  259PA     C1811390   4.970   5.611   4.535
  259PA     H8R11391   4.902   5.537   4.489
  259PA     H8S11392   4.975   5.699   4.464
  259PA     C1711393   5.088   5.528   4.553
  259PA     H7R11394   5.141   5.593   4.625
  259PA     H7S11395   5.088   5.438   4.613
  259PA     C1611396   5.147   5.516   4.418
  259PA     H6R11397   5.095   5.597   4.363
  259PA     H6S11398   5.246   5.537   4.460
  259PA     C1511399   5.121   5.425   4.298
  259PA     H5R11400   5.118   5.341   4.360
  259PA     H5S11401   5.018   5.448   4.259
  259PA     C1411402   5.207   5.406   4.166
  259PA     H4R11403   5.147   5.347   4.097
  259PA     H4S11404   5.198   5.490   4.098
  259PA     C1311405   5.345   5.334   4.150
  259PA     H3R11406   5.444   5.354   4.194
  259PA     H3S11407   5.374   5.258   4.223
  259PA     C1211408   5.401   5.353   4.009
  259PA     H2R11409   5.504   5.383   4.015
  259PA     H2S11410   5.435   5.254   4.008
  260PC     C1111411   5.336   5.424   3.882
  260PC     O1211412   5.363   5.537   3.846
  260PC     O1111413   5.258   5.352   3.807
  260PC      C111414   5.227   5.413   3.680
  260PC      HR11415   5.204   5.520   3.685
  260PC      HS11416   5.305   5.406   3.601
  260PC      C211417   5.113   5.329   3.633
  260PC      HX11418   5.148   5.223   3.641
  260PC      C311419   5.083   5.359   3.485
  260PC      HA11420   5.093   5.469   3.468
  260PC      HB11421   5.162   5.309   3.424
  260PC     O3111422   4.955   5.307   3.449
  260PC     P3111423   4.831   5.403   3.444
  260PC     O3211424   4.852   5.459   3.296
  260PC     C3111425   4.896   5.373   3.191
  260PC     H1A11426   4.895   5.433   3.097
  260PC     H1B11427   5.002   5.341   3.210
  260PC     C3211428   4.807   5.248   3.167
  260PC     H2A11429   4.866   5.178   3.110
  260PC     H2B11430   4.789   5.206   3.267
  260PC     N3111431   4.673   5.270   3.094
  260PC     C3311432   4.694   5.311   2.952
  260PC     H3A11433   4.758   5.398   2.946
  260PC     H3B11434   4.736   5.231   2.892
  260PC     H3C11435   4.600   5.341   2.909
  260PC     C3411436   4.585   5.149   3.098
  260PC     H4A11437   4.626   5.068   3.038
  260PC     H4B11438   4.574   5.115   3.200
  260PC     H4C11439   4.487   5.173   3.057
  260PC     C3511440   4.602   5.379   3.168
  260PC     H5A11441   4.515   5.416   3.116
  260PC     H5B11442   4.670   5.462   3.191
  260PC     H5C11443   4.574   5.344   3.268
  260PC     O3311444   4.708   5.321   3.440
  260PC     O3411445   4.845   5.510   3.544
  260PC     O2111446   5.005   5.362   3.722
  260PC     C2111447   4.948   5.263   3.784
  260PC     O2211448   4.974   5.144   3.773
  261OL     C1211449   4.839   5.318   3.878
  261OL     H2R11450   4.744   5.317   3.824
  261OL     H2S11451   4.866   5.422   3.904
  261OL     C1311452   4.832   5.240   4.012
  261OL     H3R11453   4.939   5.246   4.033
  261OL     H3S11454   4.804   5.134   4.003
  261OL     C1411455   4.756   5.308   4.126
  261OL     H4R11456   4.649   5.313   4.098
  261OL     H4S11457   4.797   5.412   4.136
  261OL     C1511458   4.766   5.240   4.265
  261OL     H5R11459   4.864   5.273   4.302
  261OL     H5S11460   4.761   5.131   4.253
  261OL     C1611461   4.668   5.285   4.375
  261OL     H6R11462   4.565   5.297   4.335
  261OL     H6S11463   4.707   5.380   4.416
  261OL     C1711464   4.658   5.204   4.502
  261OL     H7R11465   4.648   5.095   4.480
  261OL     H7S11466   4.562   5.238   4.549
  261OL     C1811467   4.772   5.236   4.599
  261OL     H8R11468   4.780   5.345   4.617
  261OL     H8S11469   4.870   5.202   4.559
  261OL     C1911470   4.726   5.168   4.723
  261OL     H9R11471   4.633   5.209   4.765
  261OL    C11011472   4.790   5.078   4.796
  261OL    H10R11473   4.745   5.055   4.889
  261OL    C11111474   4.923   5.019   4.781
  261OL    H11R11475   4.926   4.960   4.689
  261OL    H11S11476   4.953   4.942   4.856
  261OL    C11211477   5.007   5.146   4.804
  261OL    H12R11478   4.994   5.230   4.733
  261OL    H12S11479   5.104   5.113   4.777
  261OL    C11311480   5.042   5.188   4.950
  261OL    H13R11481   5.076   5.087   4.983
  261OL    H13S11482   4.964   5.221   5.016
  261OL    C11411483   5.144   5.308   4.959
  261OL    H14R11484   5.099   5.407   4.957
  261OL    H14S11485   5.168   5.294   4.855
  261OL    C11511486   5.262   5.313   5.067
  261OL    H15R11487   5.270   5.211   5.108
  261OL    H15S11488   5.240   5.396   5.132
  261OL    C11611489   5.414   5.340   5.077
  261OL    H16R11490   5.454   5.429   5.026
  261OL    H16S11491   5.475   5.255   5.036
  261OL    C11711492   5.457   5.345   5.220
  261OL    H17R11493   5.552   5.314   5.202
  261OL    H17S11494   5.437   5.255   5.270
  261OL    C11811495   5.426   5.446   5.329
  261OL    H18R11496   5.504   5.447   5.408
  261OL    H18S11497   5.341   5.404   5.384
  261OL    H18T11498   5.407   5.546   5.289
  262PA    C11611499   0.365   0.681   4.777
  262PA    H16R11500   0.336   0.774   4.816
  262PA    H16S11501   0.447   0.711   4.711
  262PA    H16T11502   0.391   0.631   4.871
  262PA    C11511503   0.244   0.644   4.699
  262PA    H15R11504   0.166   0.602   4.765
  262PA    H15S11505   0.199   0.723   4.634
  262PA    C11411506   0.293   0.536   4.625
  262PA    H14R11507   0.389   0.569   4.577
  262PA    H14S11508   0.314   0.461   4.706
  262PA    C11311509   0.183   0.499   4.533
  262PA    H13R11510   0.089   0.489   4.593
  262PA    H13S11511   0.167   0.580   4.457
  262PA    C11211512   0.221   0.366   4.477
  262PA    H12R11513   0.211   0.293   4.560
  262PA    H12S11514   0.150   0.342   4.396
  262PA    C11111515   0.366   0.367   4.428
  262PA    H11R11516   0.378   0.443   4.348
  262PA    H11S11517   0.441   0.392   4.507
  262PA    C11011518   0.408   0.229   4.380
  262PA    H10R11519   0.421   0.164   4.469
  262PA    H10S11520   0.327   0.185   4.318
  262PA     C1911521   0.540   0.240   4.303
  262PA     H9R11522   0.608   0.307   4.361
  262PA     H9S11523   0.587   0.140   4.295
  262PA     C1811524   0.525   0.299   4.162
  262PA     H8R11525   0.487   0.403   4.166
  262PA     H8S11526   0.626   0.303   4.115
  262PA     C1711527   0.433   0.218   4.069
  262PA     H7R11528   0.456   0.110   4.075
  262PA     H7S11529   0.328   0.231   4.103
  262PA     C1611530   0.450   0.267   3.925
  262PA     H6R11531   0.434   0.377   3.924
  262PA     H6S11532   0.553   0.245   3.890
  262PA     C1511533   0.351   0.201   3.830
  262PA     H5R11534   0.367   0.090   3.830
  262PA     H5S11535   0.252   0.222   3.872
  262PA     C1411536   0.349   0.252   3.686
  262PA     H4R11537   0.452   0.241   3.646
  262PA     H4S11538   0.280   0.187   3.628
  262PA     C1311539   0.300   0.397   3.673
  262PA     H3R11540   0.196   0.403   3.713
  262PA     H3S11541   0.363   0.465   3.734
  262PA     C1211542   0.302   0.440   3.524
  262PA     H2R11543   0.406   0.437   3.488
  262PA     H2S11544   0.241   0.369   3.464
  263PC     C1111545   0.249   0.582   3.498
  263PC     O1211546   0.236   0.668   3.582
  263PC     O1111547   0.235   0.596   3.367
  263PC      C111548   0.215   0.728   3.312
  263PC      HR11549   0.136   0.721   3.235
  263PC      HS11550   0.182   0.804   3.388
  263PC      C211551   0.341   0.780   3.239
  263PC      HX11552   0.321   0.882   3.201
  263PC      C311553   0.382   0.688   3.120
  263PC      HA11554   0.302   0.689   3.043
  263PC      HB11555   0.475   0.725   3.070
  263PC     O3111556   0.403   0.556   3.166
  263PC     P3111557   0.436   0.440   3.067
  263PC     O3211558   0.556   0.375   3.146
  263PC     C3111559   0.652   0.467   3.201
  263PC     H1A11560   0.754   0.437   3.170
  263PC     H1B11561   0.643   0.573   3.165
  263PC     C3211562   0.634   0.475   3.352
  263PC     H2A11563   0.699   0.554   3.389
  263PC     H2B11564   0.533   0.505   3.375
  263PC     N3111565   0.672   0.356   3.431
  263PC     C3311566   0.676   0.409   3.573
  263PC     H3A11567   0.737   0.498   3.586
  263PC     H3B11568   0.577   0.422   3.615
  263PC     H3C11569   0.722   0.340   3.643
  263PC     C3411570   0.583   0.237   3.410
  263PC     H4A11571   0.573   0.222   3.302
  263PC     H4B11572   0.629   0.148   3.452
  263PC     H4C11573   0.486   0.252   3.454
  263PC     C3511574   0.798   0.305   3.372
  263PC     H5A11575   0.794   0.266   3.272
  263PC     H5B11576   0.833   0.217   3.428
  263PC     H5C11577   0.881   0.372   3.386
  263PC     O3311578   0.320   0.348   3.065
  263PC     O3411579   0.483   0.493   2.937
  263PC     O2111580   0.444   0.784   3.337
  263PC     C2111581   0.559   0.828   3.295
  263PC     O2211582   0.577   0.897   3.196
  264OL     C1211583   0.666   0.787   3.400
  264OL     H2R11584   0.746   0.862   3.393
  264OL     H2S11585   0.721   0.703   3.359
  264OL     C1311586   0.612   0.752   3.544
  264OL     H3R11587   0.518   0.695   3.540
  264OL     H3S11588   0.568   0.829   3.608
  264OL     C1411589   0.712   0.723   3.656
  264OL     H4R11590   0.764   0.810   3.704
  264OL     H4S11591   0.794   0.662   3.616
  264OL     C1511592   0.631   0.673   3.776
  264OL     H5R11593   0.702   0.617   3.841
  264OL     H5S11594   0.551   0.606   3.739
  264OL     C1611595   0.564   0.783   3.863
  264OL     H6R11596   0.481   0.834   3.810
  264OL     H6S11597   0.638   0.861   3.889
  264OL     C1711598   0.510   0.720   3.992
  264OL     H7R11599   0.598   0.684   4.050
  264OL     H7S11600   0.448   0.632   3.964
  264OL     C1811601   0.426   0.815   4.078
  264OL     H8R11602   0.337   0.847   4.019
  264OL     H8S11603   0.486   0.907   4.097
  264OL     C1911604   0.380   0.749   4.205
  264OL     H9R11605   0.330   0.651   4.195
  264OL    C11011606   0.406   0.793   4.328
  264OL    H10R11607   0.377   0.734   4.416
  264OL    C11111608   0.486   0.915   4.358
  264OL    H11R11609   0.462   0.959   4.457
  264OL    H11S11610   0.476   0.998   4.284
  264OL    C11211611   0.629   0.869   4.373
  264OL    H12R11612   0.673   0.969   4.376
  264OL    H12S11613   0.682   0.823   4.288
  264OL    C11311614   0.640   0.780   4.498
  264OL    H13R11615   0.576   0.690   4.490
  264OL    H13S11616   0.600   0.835   4.587
  264OL    C11411617   0.778   0.724   4.530
  264OL    H14R11618   0.867   0.788   4.547
  264OL    H14S11619   0.814   0.658   4.449
  264OL    C11511620   0.762   0.657   4.663
  264OL    H15R11621   0.671   0.594   4.665
  264OL    H15S11622   0.750   0.727   4.747
  264OL    C11611623   0.887   0.580   4.674
  264OL    H16R11624   0.958   0.630   4.745
  264OL    H16S11625   0.942   0.566   4.579
  264OL    C11711626   0.850   0.442   4.708
  264OL    H17R11627   0.799   0.380   4.633
  264OL    H17S11628   0.768   0.449   4.783
  264OL    C11811629   0.980   0.389   4.759
  264OL    H18R11630   1.060   0.346   4.706
  264OL    H18S11631   0.949   0.296   4.803
  264OL    H18T11632   1.030   0.462   4.827
  265PA    C11611633   0.936  -0.167   4.911
  265PA    H16R11634   0.844  -0.121   4.869
  265PA    H16S11635   0.989  -0.089   4.969
  265PA    H16T11636   0.904  -0.248   4.979
  265PA    C11511637   1.028  -0.223   4.803
  265PA    H15R11638   1.130  -0.241   4.847
  265PA    H15S11639   0.989  -0.322   4.772
  265PA    C11411640   1.040  -0.132   4.681
  265PA    H14R11641   0.937  -0.109   4.645
  265PA    H14S11642   1.087  -0.036   4.711
  265PA    C11311643   1.119  -0.194   4.564
  265PA    H13R11644   1.209  -0.247   4.602
  265PA    H13S11645   1.054  -0.268   4.513
  265PA    C11211646   1.164  -0.088   4.461
  265PA    H12R11647   1.073  -0.040   4.418
  265PA    H12S11648   1.222  -0.009   4.512
  265PA    C11111649   1.250  -0.146   4.346
  265PA    H11R11650   1.355  -0.116   4.366
  265PA    H11S11651   1.247  -0.257   4.346
  265PA    C11011652   1.212  -0.094   4.207
  265PA    H10R11653   1.173   0.010   4.213
  265PA    H10S11654   1.307  -0.090   4.147
  265PA     C1911655   1.113  -0.181   4.127
  265PA     H9R11656   1.149  -0.286   4.121
  265PA     H9S11657   1.013  -0.181   4.176
  265PA     C1811658   1.100  -0.128   3.985
  265PA     H8R11659   1.046  -0.031   3.988
  265PA     H8S11660   1.202  -0.106   3.944
  265PA     C1711661   1.033  -0.225   3.888
  265PA     H7R11662   1.078  -0.326   3.895
  265PA     H7S11663   0.926  -0.236   3.917
  265PA     C1611664   1.047  -0.176   3.744
  265PA     H6R11665   1.154  -0.161   3.719
  265PA     H6S11666   1.005  -0.249   3.672
  265PA     C1511667   0.975  -0.044   3.725
  265PA     H5R11668   1.011   0.033   3.797
  265PA     H5S11669   1.003  -0.006   3.624
  265PA     C1411670   0.824  -0.063   3.743
  265PA     H4R11671   0.786  -0.120   3.655
  265PA     H4S11672   0.796  -0.114   3.836
  265PA     C1311673   0.752   0.067   3.752
  265PA     H3R11674   0.642   0.049   3.749
  265PA     H3S11675   0.773   0.128   3.843
  265PA     C1211676   0.797   0.142   3.630
  265PA     H2R11677   0.808   0.082   3.538
  265PA     H2S11678   0.700   0.188   3.619
  266PC     C1111679   0.913   0.243   3.653
  266PC     O1211680   0.923   0.316   3.749
  266PC     O1111681   0.974   0.256   3.540
  266PC      C111682   1.075   0.350   3.501
  266PC      HR11683   1.052   0.395   3.401
  266PC      HS11684   1.091   0.431   3.574
  266PC      C211685   1.193   0.257   3.485
  266PC      HX11686   1.282   0.316   3.454
  266PC      C311687   1.172   0.156   3.369
  266PC      HA11688   1.145   0.207   3.273
  266PC      HB11689   1.270   0.108   3.351
  266PC     O3111690   1.073   0.061   3.407
  266PC     P3111691   1.022  -0.040   3.299
  266PC     O3211692   1.163  -0.104   3.259
  266PC     C3111693   1.257  -0.147   3.359
  266PC     H1A11694   1.344  -0.077   3.363
  266PC     H1B11695   1.213  -0.148   3.462
  266PC     C3211696   1.312  -0.288   3.330
  266PC     H2A11697   1.389  -0.306   3.404
  266PC     H2B11698   1.230  -0.356   3.350
  266PC     N3111699   1.371  -0.315   3.192
  266PC     C3311700   1.264  -0.291   3.087
  266PC     H3A11701   1.300  -0.305   2.987
  266PC     H3B11702   1.179  -0.356   3.103
  266PC     H3C11703   1.221  -0.191   3.097
  266PC     C3411704   1.492  -0.229   3.167
  266PC     H4A11705   1.463  -0.124   3.163
  266PC     H4B11706   1.568  -0.234   3.245
  266PC     H4C11707   1.542  -0.252   3.073
  266PC     C3511708   1.409  -0.458   3.180
  266PC     H5A11709   1.460  -0.477   3.086
  266PC     H5B11710   1.321  -0.521   3.183
  266PC     H5C11711   1.477  -0.486   3.260
  266PC     O3311712   0.934  -0.141   3.361
  266PC     O3411713   0.968   0.038   3.186
  266PC     O2111714   1.203   0.198   3.616
  266PC     C2111715   1.319   0.172   3.665
  266PC     O2211716   1.420   0.157   3.600
  267OL     C1211717   1.311   0.158   3.816
  267OL     H2R11718   1.415   0.165   3.854
  267OL     H2S11719   1.276   0.055   3.834
  267OL     C1311720   1.229   0.263   3.894
  267OL     H3R11721   1.122   0.232   3.889
  267OL     H3S11722   1.236   0.367   3.855
  267OL     C1411723   1.274   0.264   4.040
  267OL     H4R11724   1.364   0.326   4.059
  267OL     H4S11725   1.300   0.161   4.073
  267OL     C1511726   1.163   0.319   4.124
  267OL     H5R11727   1.072   0.257   4.108
  267OL     H5S11728   1.140   0.425   4.097
  267OL     C1611729   1.201   0.315   4.268
  267OL     H6R11730   1.285   0.386   4.288
  267OL     H6S11731   1.238   0.213   4.298
  267OL     C1711732   1.078   0.345   4.349
  267OL     H7R11733   0.991   0.284   4.317
  267OL     H7S11734   1.048   0.452   4.342
  267OL     C1811735   1.106   0.302   4.489
  267OL     H8R11736   1.142   0.198   4.502
  267OL     H8S11737   1.007   0.311   4.535
  267OL     C1911738   1.214   0.397   4.527
  267OL     H9R11739   1.186   0.504   4.519
  267OL    C11011740   1.324   0.361   4.596
  267OL    H10R11741   1.403   0.431   4.612
  267OL    C11111742   1.376   0.235   4.653
  267OL    H11R11743   1.472   0.261   4.704
  267OL    H11S11744   1.403   0.175   4.564
  267OL    C11211745   1.283   0.166   4.759
  267OL    H12R11746   1.309   0.060   4.746
  267OL    H12S11747   1.178   0.180   4.728
  267OL    C11311748   1.295   0.194   4.914
  267OL    H13R11749   1.296   0.298   4.944
  267OL    H13S11750   1.394   0.154   4.945
  267OL    C11411751   1.186   0.142   5.013
  267OL    H14R11752   1.213   0.173   5.116
  267OL    H14S11753   1.188   0.031   5.007
  267OL    C11511754   1.039   0.188   4.996
  267OL    H15R11755   0.972   0.118   5.048
  267OL    H15S11756   1.022   0.160   4.891
  267OL    C11611757   1.001   0.335   5.043
  267OL    H16R11758   1.080   0.396   4.995
  267OL    H16S11759   1.020   0.356   5.150
  267OL    C11711760   0.854   0.387   5.014
  267OL    H17R11761   0.769   0.344   5.067
  267OL    H17S11762   0.819   0.334   4.925
  267OL    C11811763   0.831   0.541   5.000
  267OL    H18R11764   0.801   0.581   5.097
  267OL    H18S11765   0.747   0.571   4.933
  267OL    H18T11766   0.919   0.596   4.959
  268PA    C11611767   5.718   5.536   5.235
  268PA    H16R11768   5.640   5.589   5.178
  268PA    H16S11769   5.808   5.600   5.237
  268PA    H16T11770   5.695   5.531   5.344
  268PA    C11511771   5.748   5.396   5.173
  268PA    H15R11772   5.836   5.367   5.229
  268PA    H15S11773   5.722   5.316   5.231
  268PA    C11411774   5.737   5.343   5.017
  268PA    H14R11775   5.746   5.236   5.038
  268PA    H14S11776   5.637   5.349   4.976
  268PA    C11311777   5.833   5.392   4.896
  268PA    H13R11778   5.828   5.501   4.878
  268PA    H13S11779   5.933   5.363   4.922
  268PA    C11211780   5.874   5.337   4.762
  268PA    H12R11781   5.931   5.417   4.707
  268PA    H12S11782   5.949   5.253   4.757
  268PA    C11111783   5.744   5.307   4.706
  268PA    H11R11784   5.697   5.228   4.769
  268PA    H11S11785   5.684   5.401   4.714
  268PA    C11011786   5.777   5.264   4.569
  268PA    H10R11787   5.820   5.353   4.517
  268PA    H10S11788   5.860   5.191   4.571
  268PA     C1911789   5.653   5.204   4.510
  268PA     H9R11790   5.682   5.162   4.412
  268PA     H9S11791   5.615   5.123   4.577
  268PA     C1811792   5.544   5.308   4.491
  268PA     H8R11793   5.463   5.259   4.433
  268PA     H8S11794   5.498   5.340   4.587
  268PA     C1711795   5.602   5.433   4.423
  268PA     H7R11796   5.689   5.478   4.473
  268PA     H7S11797   5.633   5.404   4.320
  268PA     C1611798   5.511   5.554   4.429
  268PA     H6R11799   5.455   5.550   4.526
  268PA     H6S11800   5.558   5.652   4.412
  268PA     C1511801   5.422   5.540   4.316
  268PA     H5R11802   5.380   5.440   4.346
  268PA     H5S11803   5.329   5.588   4.308
  268PA     C1411804   5.463   5.579   4.173
  268PA     H4R11805   5.536   5.509   4.140
  268PA     H4S11806   5.369   5.568   4.120
  268PA     C1311807   5.518   5.704   4.114
  268PA     H3R11808   5.443   5.784   4.102
  268PA     H3S11809   5.596   5.732   4.186
  268PA     C1211810   5.559   5.685   3.965
  268PA     H2R11811   5.475   5.705   3.898
  268PA     H2S11812   5.614   5.779   3.951
  269PC     C1111813   5.644   5.555   3.934
  269PC     O1211814   5.739   5.527   4.005
  269PC     O1111815   5.600   5.467   3.837
  269PC      C111816   5.641   5.323   3.839
  269PC      HR11817   5.742   5.320   3.795
  269PC      HS11818   5.652   5.279   3.940
  269PC      C211819   5.550   5.215   3.754
  269PC      HX11820   5.611   5.124   3.736
  269PC      C311821   5.532   5.301   3.626
  269PC      HA11822   5.481   5.394   3.657
  269PC      HB11823   5.628   5.344   3.589
  269PC     O3111824   5.457   5.235   3.524
  269PC     P3111825   5.551   5.147   3.431
  269PC     O3211826   5.588   5.255   3.324
  269PC     C3111827   5.507   5.270   3.209
  269PC     H1A11828   5.477   5.172   3.167
  269PC     H1B11829   5.415   5.327   3.235
  269PC     C3211830   5.589   5.346   3.102
  269PC     H2A11831   5.535   5.336   3.009
  269PC     H2B11832   5.584   5.451   3.129
  269PC     N3111833   5.735   5.307   3.084
  269PC     C3311834   5.799   5.374   2.968
  269PC     H3A11835   5.737   5.369   2.880
  269PC     H3B11836   5.815   5.479   2.991
  269PC     H3C11837   5.896   5.329   2.946
  269PC     C3411838   5.816   5.355   3.203
  269PC     H4A11839   5.921   5.335   3.191
  269PC     H4B11840   5.804   5.462   3.214
  269PC     H4C11841   5.778   5.312   3.296
  269PC     C3511842   5.739   5.160   3.080
  269PC     H5A11843   5.840   5.122   3.086
  269PC     H5B11844   5.687   5.122   2.993
  269PC     H5C11845   5.683   5.127   3.168
  269PC     O3311846   5.676   5.114   3.502
  269PC     O3411847   5.475   5.039   3.366
  269PC     O2111848   5.414   5.176   3.801
  269PC     C2111849   5.372   5.085   3.898
  269PC     O2211850   5.450   5.015   3.958
  270OL     C1211851   5.227   5.120   3.963
  270OL     H2R11852   5.148   5.077   3.903
  270OL     H2S11853   5.203   5.225   3.958
  270OL     C1311854   5.204   5.088   4.117
  270OL     H3R11855   5.274   5.122   4.190
  270OL     H3S11856   5.230   4.983   4.131
  270OL     C1411857   5.074   5.134   4.188
  270OL     H4R11858   4.992   5.074   4.144
  270OL     H4S11859   5.036   5.236   4.184
  270OL     C1511860   5.082   5.125   4.338
  270OL     H5R11861   4.994   5.172   4.388
  270OL     H5S11862   5.170   5.170   4.389
  270OL     C1611863   5.086   4.983   4.361
  270OL     H6R11864   5.181   4.945   4.321
  270OL     H6S11865   4.998   4.941   4.308
  270OL     C1711866   5.071   4.970   4.505
  270OL     H7R11867   5.025   4.873   4.518
  270OL     H7S11868   4.986   5.036   4.530
  270OL     C1811869   5.193   5.002   4.598
  270OL     H8R11870   5.156   4.952   4.689
  270OL     H8S11871   5.187   5.113   4.607
  270OL     C1911872   5.343   4.974   4.600
  270OL     H9R11873   5.399   5.045   4.537
  270OL    C11011874   5.412   4.872   4.660
  270OL    H10R11875   5.511   4.848   4.620
  270OL    C11111876   5.359   4.755   4.740
  270OL    H11R11877   5.364   4.668   4.673
  270OL    H11S11878   5.253   4.771   4.759
  270OL    C11211879   5.420   4.681   4.858
  270OL    H12R11880   5.511   4.626   4.831
  270OL    H12S11881   5.361   4.612   4.918
  270OL    C11311882   5.409   4.772   4.966
  270OL    H13R11883   5.486   4.835   4.919
  270OL    H13S11884   5.450   4.732   5.061
  270OL    C11411885   5.260   4.816   4.982
  270OL    H14R11886   5.195   4.740   5.031
  270OL    H14S11887   5.196   4.862   4.904
  270OL    C11511888   5.280   4.928   5.065
  270OL    H15R11889   5.306   4.854   5.145
  270OL    H15S11890   5.189   4.972   5.110
  270OL    C11611891   5.389   5.025   5.001
  270OL    H16R11892   5.490   5.001   4.970
  270OL    H16S11893   5.420   5.085   5.083
  270OL    C11711894   5.337   5.106   4.880
  270OL    H17R11895   5.258   5.117   4.948
  270OL    H17S11896   5.274   5.045   4.819
  270OL    C11811897   5.388   5.241   4.808
  270OL    H18R11898   5.395   5.334   4.863
  270OL    H18S11899   5.314   5.298   4.748
  270OL    H18T11900   5.486   5.239   4.762
  271Na+    Na+11901   1.230   3.917   0.317
  272Na+    Na+11902   0.130   3.790   8.579
  273Na+    Na+11903   3.636   4.285   8.941
  274Na+    Na+11904   4.710   2.864   1.926
  275Na+    Na+11905   5.209   3.741   0.665
  276Na+    Na+11906   2.579   2.438   8.157
  277Na+    Na+11907   3.148   2.048   1.972
  278Na+    Na+11908   0.655   1.977  10.263
  279Na+    Na+11909   4.506   2.556   0.111
  280Na+    Na+11910   4.602   2.491   9.019
  281Na+    Na+11911   2.343   0.388   2.527
  282Na+    Na+11912   2.631   4.401   0.451
  283Na+    Na+11913   1.358   1.849   2.007
  284Na+    Na+11914   2.823   3.491   8.213
  285Cl-    Cl-11915   0.324   5.074   0.966
  286Cl-    Cl-11916   0.490   4.623   8.841
  287Cl-    Cl-11917   3.136   4.608   7.953
  288Cl-    Cl-11918   0.208   4.060   2.176
  289Cl-    Cl-11919   3.150   4.789   8.548
  290Cl-    Cl-11920   1.998   5.237   2.444
  291Cl-    Cl-11921   0.676   1.084   2.484
  292Cl-    Cl-11922   3.043   3.750   1.666
  293Cl-    Cl-11923   2.017   3.460   0.594
  294Cl-    Cl-11924   3.195   1.848   8.205
  295Cl-    Cl-11925   4.616   2.928   0.597
  296Cl-    Cl-11926   3.256   3.558   8.858
  297Cl-    Cl-11927   1.741   1.902   8.358
  298Cl-    Cl-11928   2.906   5.298   0.178
  299Cl-    Cl-11929   3.670   3.072   2.258
  300Cl-    Cl-11930   1.831   0.534   0.957
  301Cl-    Cl-11931   3.510   2.336   2.707
  302TP3      O11932   1.200   0.992   7.826
  302TP3     H111933   1.198   1.091   7.826
  302TP3     H211934   1.127   0.973   7.766
  303TP3      O11935   1.085   0.914   8.176
  303TP3     H111936   1.086   0.853   8.252
  303TP3     H211937   1.041   0.862   8.107
  304TP3      O11938   0.317   0.888   8.338
  304TP3     H111939   0.325   0.814   8.402
  304TP3     H211940   0.396   0.940   8.358
  305TP3      O11941   1.447   1.212   8.011
  305TP3     H111942   1.411   1.139   8.062
  305TP3     H211943   1.456   1.281   8.079
  306TP3      O11944   0.406   1.330   8.179
  306TP3     H111945   0.380   1.240   8.151
  306TP3     H211946   0.502   1.316   8.183
  307TP3      O11947   0.086   0.698   7.699
  307TP3     H111948   0.030   0.767   7.740
  307TP3     H211949   0.027   0.622   7.703
  308TP3      O11950   0.151   0.906   7.953
  308TP3     H111951   0.183   0.823   7.994
  308TP3     H211952   0.221   0.926   7.890
  309TP3      O11953   1.165   1.732   8.032
  309TP3     H111954   1.231   1.664   8.002
  309TP3     H211955   1.138   1.691   8.115
  310TP3      O11956   0.922   1.154   8.235
  310TP3     H111957   0.953   1.095   8.165
  310TP3     H211958   1.007   1.172   8.280
  311TP3      O11959   1.776   0.318   8.302
  311TP3     H111960   1.801   0.379   8.375
  311TP3     H211961   1.834   0.354   8.233
  312TP3      O11962   1.240   0.603   8.265
  312TP3     H111963   1.257   0.508   8.268
  312TP3     H211964   1.229   0.617   8.169
  313TP3      O11965   0.544   0.416   7.977
  313TP3     H111966   0.562   0.496   7.923
  313TP3     H211967   0.516   0.351   7.909
  314TP3      O11968   1.327   0.410   7.811
  314TP3     H111969   1.388   0.386   7.884
  314TP3     H211970   1.375   0.483   7.769
  315TP3      O11971   0.233   0.665   8.044
  315TP3     H111972   0.282   0.600   8.096
  315TP3     H211973   0.233   0.621   7.957
  316TP3      O11974   0.724   0.809   7.991
  316TP3     H111975   0.795   0.751   8.024
  316TP3     H211976   0.678   0.747   7.931
  317TP3      O11977   1.829   0.472   8.525
  317TP3     H111978   1.766   0.546   8.513
  317TP3     H211979   1.827   0.455   8.620
  318TP3      O11980   0.445   0.311   8.385
  318TP3     H111981   0.417   0.366   8.308
  318TP3     H211982   0.371   0.327   8.449
  319TP3      O11983   1.166   1.250   7.738
  319TP3     H111984   1.139   1.227   7.647
  319TP3     H211985   1.138   1.344   7.744
  320TP3      O11986   0.689   1.066   8.403
  320TP3     H111987   0.620   1.129   8.432
  320TP3     H211988   0.760   1.126   8.376
  321TP3      O11989   1.503   0.373   8.023
  321TP3     H111990   1.481   0.288   8.065
  321TP3     H211991   1.576   0.404   8.080
  322TP3      O11992   0.396   0.491   8.184
  322TP3     H111993   0.459   0.557   8.220
  322TP3     H211994   0.452   0.452   8.111
  323TP3      O11995   0.540   1.269   8.482
  323TP3     H111996   0.533   1.362   8.453
  323TP3     H211997   0.453   1.259   8.528
  324TP3      O11998   0.156   1.233   7.556
  324TP3     H111999   0.109   1.269   7.479
  324TP3     H212000   0.155   1.306   7.620
  325TP3      O12001   1.502   1.395   8.240
  325TP3     H112002   1.406   1.409   8.254
  325TP3     H212003   1.531   1.486   8.220
  326TP3      O12004   1.534   0.220   8.391
  326TP3     H112005   1.467   0.286   8.368
  326TP3     H212006   1.609   0.253   8.338
  327TP3      O12007   0.844   0.067   8.121
  327TP3     H112008   0.842  -0.030   8.126
  327TP3     H212009   0.754   0.087   8.154
  328TP3      O12010   1.333   1.576   7.903
  328TP3     H112011   1.370   1.501   7.851
  328TP3     H212012   1.387   1.650   7.867
  329TP3      O12013   1.455   1.368   7.756
  329TP3     H112014   1.427   1.300   7.692
  329TP3     H212015   1.457   1.316   7.838
  330TP3      O12016   1.611   1.229   8.604
  330TP3     H112017   1.628   1.160   8.536
  330TP3     H212018   1.635   1.310   8.555
  331TP3      O12019   1.066   0.915   7.576
  331TP3     H112020   0.998   0.980   7.547
  331TP3     H212021   1.138   0.926   7.512
  332TP3      O12022   1.805   0.861   8.403
  332TP3     H112023   1.742   0.936   8.406
  332TP3     H212024   1.859   0.887   8.326
  333TP3      O12025   1.414   0.935   7.675
  333TP3     H112026   1.341   0.960   7.735
  333TP3     H212027   1.466   0.873   7.729
  334TP3      O12028   1.404   0.753   8.589
  334TP3     H112029   1.402   0.838   8.635
  334TP3     H212030   1.344   0.777   8.516
  335TP3      O12031   0.574   1.003   7.865
  335TP3     H112032   0.543   0.965   7.780
  335TP3     H212033   0.636   0.934   7.898
  336TP3      O12034   0.701   1.336   8.130
  336TP3     H112035   0.705   1.290   8.045
  336TP3     H212036   0.781   1.304   8.176
  337TP3      O12037   0.603   0.876   8.234
  337TP3     H112038   0.654   0.883   8.151
  337TP3     H212039   0.645   0.945   8.291
  338TP3      O12040   1.248   1.438   8.302
  338TP3     H112041   1.217   1.503   8.367
  338TP3     H212042   1.224   1.353   8.345
  339TP3      O12043   0.701   1.320   8.700
  339TP3     H112044   0.651   1.387   8.752
  339TP3     H212045   0.636   1.299   8.629
  340TP3      O12046   1.303   0.862   7.432
  340TP3     H112047   1.350   0.877   7.518
  340TP3     H212048   1.355   0.916   7.370
  341TP3      O12049   0.396   0.936   8.617
  341TP3     H112050   0.402   1.008   8.682
  341TP3     H212051   0.301   0.941   8.596
  342TP3      O12052   1.070   1.530   7.791
  342TP3     H112053   1.114   1.563   7.870
  342TP3     H212054   1.018   1.605   7.760
  343TP3      O12055   0.525   1.518   8.776
  343TP3     H112056   0.515   1.513   8.680
  343TP3     H212057   0.432   1.510   8.805
  344TP3      O12058   1.657   0.048   7.415
  344TP3     H112059   1.569   0.048   7.461
  344TP3     H212060   1.674   0.142   7.404
  345TP3      O12061   0.473   0.904   7.620
  345TP3     H112062   0.436   0.980   7.572
  345TP3     H212063   0.405   0.837   7.609
  346TP3      O12064   1.782   1.465   7.277
  346TP3     H112065   1.801   1.559   7.277
  346TP3     H212066   1.869   1.424   7.260
  347TP3      O12067   0.100   1.149   8.510
  347TP3     H112068   0.057   1.142   8.425
  347TP3     H212069   0.085   1.058   8.540
  348TP3      O12070   0.068   1.437   8.176
  348TP3     H112071   0.152   1.394   8.200
  348TP3     H212072   0.051   1.492   8.253
  349TP3      O12073   1.878   1.490   8.776
  349TP3     H112074   1.862   1.395   8.764
  349TP3     H212075   1.790   1.517   8.812
  350TP3      O12076   0.971   1.443   8.651
  350TP3     H112077   0.975   1.527   8.704
  350TP3     H212078   0.884   1.406   8.674
  351TP3      O12079   1.018   1.817   7.625
  351TP3     H112080   1.012   1.818   7.529
  351TP3     H212081   1.019   1.912   7.651
  352TP3      O12082   0.381   1.709   7.814
  352TP3     H112083   0.398   1.667   7.902
  352TP3     H212084   0.297   1.667   7.789
  353TP3      O12085   1.300   1.723   7.322
  353TP3     H112086   1.375   1.675   7.282
  353TP3     H212087   1.324   1.719   7.417
  354TP3      O12088   1.287   1.736   7.607
  354TP3     H112089   1.192   1.744   7.628
  354TP3     H212090   1.313   1.661   7.662
  355TP3      O12091   1.590   0.641   8.808
  355TP3     H112092   1.538   0.682   8.737
  355TP3     H212093   1.587   0.547   8.783
  356TP3      O12094   0.311   1.282   8.617
  356TP3     H112095   0.317   1.246   8.708
  356TP3     H212096   0.223   1.245   8.589
  357TP3      O12097   0.590   0.138   8.215
  357TP3     H112098   0.507   0.118   8.166
  357TP3     H212099   0.556   0.213   8.266
  358TP3      O12100   1.038   0.108   8.543
  358TP3     H112101   1.080   0.060   8.614
  358TP3     H212102   0.944   0.081   8.553
  359TP3      O12103   1.365   0.477   8.625
  359TP3     H112104   1.310   0.457   8.704
  359TP3     H212105   1.356   0.572   8.611
  360TP3      O12106   0.583   0.626   8.336
  360TP3     H112107   0.510   0.629   8.400
  360TP3     H212108   0.578   0.716   8.295
  361TP3      O12109   0.578   0.627   7.816
  361TP3     H112110   0.482   0.608   7.803
  361TP3     H212111   0.614   0.604   7.728
  362TP3      O12112   1.128   0.684   7.685
  362TP3     H112113   1.099   0.774   7.656
  362TP3     H212114   1.204   0.667   7.627
  363TP3      O12115   1.037   0.709   8.835
  363TP3     H112116   0.988   0.628   8.864
  363TP3     H212117   1.121   0.700   8.883
  364TP3      O12118   1.239   0.639   7.979
  364TP3     H112119   1.206   0.695   7.907
  364TP3     H212120   1.244   0.554   7.934
  365TP3      O12121   0.338   0.649   8.495
  365TP3     H112122   0.356   0.685   8.583
  365TP3     H212123   0.305   0.560   8.516
  366TP3      O12124   0.039   0.405   7.872
  366TP3     H112125   0.074   0.379   7.959
  366TP3     H212126   0.072   0.336   7.812
  367TP3      O12127   0.135   0.442   7.444
  367TP3     H112128   0.199   0.486   7.383
  367TP3     H212129   0.069   0.508   7.457
  368TP3      O12130   1.153   0.792   8.428
  368TP3     H112131   1.195   0.721   8.373
  368TP3     H212132   1.103   0.740   8.495
  369TP3      O12133   0.840   0.413   7.923
  369TP3     H112134   0.747   0.391   7.941
  369TP3     H212135   0.881   0.368   7.999
  370TP3      O12136   0.315   0.547   7.810
  370TP3     H112137   0.229   0.564   7.768
  370TP3     H212138   0.343   0.467   7.763
  371TP3      O12139   0.674   0.556   7.571
  371TP3     H112140   0.771   0.550   7.581
  371TP3     H212141   0.660   0.622   7.502
  372TP3      O12142   1.280   0.307   8.241
  372TP3     H112143   1.211   0.321   8.308
  372TP3     H212144   1.231   0.289   8.159
  373TP3      O12145   0.549   0.685   7.317
  373TP3     H112146   0.492   0.630   7.260
  373TP3     H212147   0.636   0.673   7.280
  374TP3      O12148   1.590   1.878   8.894
  374TP3     H112149   1.615   1.904   8.802
  374TP3     H212150   1.671   1.909   8.938
  375TP3      O12151   0.380   1.119   8.828
  375TP3     H112152   0.443   1.147   8.897
  375TP3     H212153   0.297   1.127   8.880
  376TP3      O12154   0.964   0.669   8.107
  376TP3     H112155   1.022   0.614   8.055
  376TP3     H212156   0.946   0.612   8.183
  377TP3      O12157   0.467   0.281   7.753
  377TP3     H112158   0.434   0.190   7.755
  377TP3     H212159   0.547   0.271   7.699
  378TP3      O12160   0.828   0.497   8.345
  378TP3     H112161   0.747   0.551   8.354
  378TP3     H212162   0.886   0.534   8.414
  379TP3      O12163   0.889   1.116   7.526
  379TP3     H112164   0.805   1.082   7.486
  379TP3     H212165   0.859   1.143   7.616
  380TP3      O12166   1.613   1.047   8.398
  380TP3     H112167   1.662   1.100   8.332
  380TP3     H212168   1.524   1.044   8.356
  381TP3      O12169   1.035   1.155   8.642
  381TP3     H112170   1.001   1.106   8.718
  381TP3     H212171   1.005   1.245   8.658
  382TP3      O12172   1.345   0.579   7.504
  382TP3     H112173   1.434   0.583   7.546
  382TP3     H212174   1.343   0.660   7.451
  383TP3      O12175   0.401   1.067   8.101
  383TP3     H112176   0.460   1.056   8.024
  383TP3     H212177   0.407   0.980   8.144
  384TP3      O12178   1.095   1.267   7.421
  384TP3     H112179   1.060   1.352   7.454
  384TP3     H212180   1.023   1.206   7.443
  385TP3      O12181   0.110   0.893   8.612
  385TP3     H112182   0.133   0.855   8.698
  385TP3     H212183   0.038   0.836   8.581
  386TP3      O12184   0.797   0.859   8.838
  386TP3     H112185   0.761   0.820   8.757
  386TP3     H212186   0.888   0.823   8.836
  387TP3      O12187   1.271   1.393   8.642
  387TP3     H112188   1.179   1.410   8.615
  387TP3     H212189   1.263   1.424   8.735
  388TP3      O12190   1.820   0.620   7.480
  388TP3     H112191   1.775   0.590   7.401
  388TP3     H212192   1.840   0.713   7.454
  389TP3      O12193   1.832   1.195   8.754
  389TP3     H112194   1.742   1.218   8.720
  389TP3     H212195   1.884   1.189   8.670
  390TP3      O12196   1.666   1.498   7.517
  390TP3     H112197   1.626   1.418   7.555
  390TP3     H212198   1.686   1.472   7.425
  391TP3      O12199   1.385   0.975   8.227
  391TP3     H112200   1.291   0.957   8.211
  391TP3     H212201   1.428   0.902   8.179
  392TP3      O12202   0.636   1.406   7.836
  392TP3     H112203   0.685   1.489   7.823
  392TP3     H212204   0.548   1.432   7.806
  393TP3      O12205   0.776   1.175   7.787
  393TP3     H112206   0.741   1.266   7.797
  393TP3     H212207   0.708   1.122   7.833
  394TP3      O12208   0.820   1.595   8.436
  394TP3     H112209   0.871   1.671   8.402
  394TP3     H212210   0.884   1.557   8.498
  395TP3      O12211   0.644   1.666   7.743
  395TP3     H112212   0.549   1.685   7.762
  395TP3     H212213   0.683   1.750   7.772
  396TP3      O12214   1.166   1.189   8.390
  396TP3     H112215   1.141   1.171   8.484
  396TP3     H212216   1.232   1.120   8.372
  397TP3      O12217   1.458   1.649   8.640
  397TP3     H112218   1.383   1.605   8.595
  397TP3     H212219   1.474   1.720   8.573
  398TP3      O12220   0.257   0.374   8.572
  398TP3     H112221   0.171   0.414   8.587
  398TP3     H212222   0.251   0.293   8.625
  399TP3      O12223   1.486   1.168   7.537
  399TP3     H112224   1.464   1.082   7.577
  399TP3     H212225   1.583   1.163   7.531
  400TP3      O12226   0.229   1.551   8.412
  400TP3     H112227   0.254   1.458   8.419
  400TP3     H212228   0.245   1.581   8.503
  401TP3      O12229   0.345   1.087   7.433
  401TP3     H112230   0.278   1.122   7.497
  401TP3     H212231   0.409   1.158   7.428
  402TP3      O12232   1.139   0.350   8.476
  402TP3     H112233   1.206   0.357   8.546
  402TP3     H212234   1.094   0.267   8.500
  403TP3      O12235   1.227   0.300   7.576
  403TP3     H112236   1.221   0.370   7.509
  403TP3     H212237   1.268   0.349   7.650
  404TP3      O12238   0.981   1.524   7.459
  404TP3     H112239   0.895   1.569   7.475
  404TP3     H212240   1.032   1.586   7.408
  405TP3      O12241   0.930   0.481   7.661
  405TP3     H112242   1.005   0.544   7.665
  405TP3     H212243   0.902   0.472   7.754
  406TP3      O12244   0.992   0.591   8.589
  406TP3     H112245   0.997   0.643   8.672
  406TP3     H212246   1.057   0.521   8.598
  407TP3      O12247   1.017   0.185   7.769
  407TP3     H112248   0.982   0.255   7.826
  407TP3     H212249   1.076   0.237   7.710
  408TP3      O12250   0.712   1.634   7.469
  408TP3     H112251   0.735   1.718   7.425
  408TP3     H212252   0.686   1.663   7.559
  409TP3      O12253   0.592   0.311   7.416
  409TP3     H112254   0.584   0.393   7.467
  409TP3     H212255   0.682   0.283   7.445
  410TP3      O12256   1.603   0.376   8.668
  410TP3     H112257   1.510   0.406   8.654
  410TP3     H212258   1.634   0.368   8.577
  411TP3      O12259   1.469   0.752   8.066
  411TP3     H112260   1.386   0.705   8.044
  411TP3     H212261   1.519   0.686   8.118
  412TP3      O12262   0.243   0.596   7.267
  412TP3     H112263   0.256   0.691   7.261
  412TP3     H212264   0.178   0.581   7.197
  413TP3      O12265   1.572   1.670   8.224
  413TP3     H112266   1.566   1.750   8.168
  413TP3     H212267   1.661   1.687   8.261
  414TP3      O12268   0.349   0.125   8.089
  414TP3     H112269   0.311   0.119   7.999
  414TP3     H212270   0.292   0.056   8.130
  415TP3      O12271   0.215   1.483   7.725
  415TP3     H112272   0.127   1.523   7.720
  415TP3     H212273   0.257   1.532   7.654
  416TP3      O12274   0.149   1.749   8.864
  416TP3     H112275   0.199   1.721   8.943
  416TP3     H212276   0.099   1.669   8.844
  417TP3      O12277   0.611   1.635   9.020
  417TP3     H112278   0.689   1.589   9.051
  417TP3     H212279   0.606   1.608   8.926
  418TP3      O12280   1.246   1.483   8.901
  418TP3     H112281   1.219   1.392   8.927
  418TP3     H212282   1.330   1.494   8.951
  419TP3      O12283   0.143   1.147   8.938
  419TP3     H112284   0.150   1.049   8.940
  419TP3     H212285   0.055   1.160   8.900
  420TP3      O12286   0.799   1.124   8.889
  420TP3     H112287   0.765   1.158   8.804
  420TP3     H212288   0.802   1.026   8.878
  421TP3      O12289   1.366   1.107   8.641
  421TP3     H112290   1.448   1.162   8.640
  421TP3     H212291   1.300   1.178   8.640
  422TP3      O12292   0.214   0.842   8.900
  422TP3     H112293   0.269   0.762   8.895
  422TP3     H212294   0.202   0.851   8.997
  423TP3      O12295   0.689   0.960   7.411
  423TP3     H112296   0.633   0.910   7.473
  423TP3     H212297   0.714   0.893   7.347
  424TP3      O12298   0.605   0.740   8.631
  424TP3     H112299   0.546   0.814   8.656
  424TP3     H212300   0.653   0.779   8.555
  425TP3      O12301   1.122   1.002   8.988
  425TP3     H112302   1.212   0.989   8.954
  425TP3     H212303   1.102   0.919   9.033
  426TP3      O12304   0.662   0.482   8.734
  426TP3     H112305   0.668   0.413   8.665
  426TP3     H212306   0.643   0.563   8.682
  427TP3      O12307   0.696   0.322   8.497
  427TP3     H112308   0.743   0.368   8.423
  427TP3     H212309   0.605   0.312   8.459
  428TP3      O12310   0.842   0.872   8.520
  428TP3     H112311   0.919   0.854   8.465
  428TP3     H212312   0.805   0.953   8.482
  429TP3      O12313   1.284   0.636   9.009
  429TP3     H112314   1.309   0.542   9.007
  429TP3     H212315   1.370   0.680   9.015
  430TP3      O12316   1.422   0.924   8.842
  430TP3     H112317   1.395   0.992   8.776
  430TP3     H212318   1.517   0.915   8.819
  431TP3      O12319   0.502   0.604   8.935
  431TP3     H112320   0.426   0.545   8.917
  431TP3     H212321   0.562   0.576   8.864
  432TP3      O12322   0.770   0.066   8.533
  432TP3     H112323   0.753   0.163   8.525
  432TP3     H212324   0.695   0.032   8.484
  433TP3      O12325   0.899   0.495   8.901
  433TP3     H112326   0.867   0.467   8.989
  433TP3     H212327   0.822   0.474   8.845
  434TP3      O12328   1.173   0.401   8.808
  434TP3     H112329   1.078   0.413   8.823
  434TP3     H212330   1.198   0.345   8.885
  435TP3      O12331   1.332   0.283   8.996
  435TP3     H112332   1.328   0.185   8.995
  435TP3     H212333   1.303   0.305   9.088
  436TP3      O12334   0.322   0.393   8.907
  436TP3     H112335   0.334   0.314   8.852
  436TP3     H212336   0.299   0.355   8.995
  437TP3      O12337   0.761   5.520   8.791
  437TP3     H112338   0.841   5.468   8.810
  437TP3     H212339   0.780   5.553   8.701
  438TP3      O12340   0.831   0.168   9.012
  438TP3     H112341   0.814   0.112   8.935
  438TP3     H212342   0.765   0.239   9.001
  439TP3      O12343   0.776   1.855   7.335
  439TP3     H112344   0.872   1.858   7.347
  439TP3     H212345   0.763   1.914   7.261
  440TP3      O12346   0.144   1.316   7.286
  440TP3     H112347   0.238   1.321   7.302
  440TP3     H212348   0.136   1.254   7.213
  441TP3      O12349   5.575   1.849   7.777
  441TP3     H112350   5.502   1.813   7.722
  441TP3     H212351   5.579   1.780   7.847
  442TP3      O12352   0.087   1.667   7.965
  442TP3     H112353   0.062   1.576   7.986
  442TP3     H212354   0.127   1.694   8.051
  443TP3      O12355   1.889   1.692   8.234
  443TP3     H112356   1.845   1.724   8.316
  443TP3     H212357   1.905   1.785   8.208
  444TP3      O12358   1.802   1.687   8.580
  444TP3     H112359   1.760   1.622   8.521
  444TP3     H212360   1.859   1.631   8.634
  445TP3      O12361   1.649   1.271   9.024
  445TP3     H112362   1.558   1.275   9.060
  445TP3     H212363   1.685   1.358   9.054
  446TP3      O12364   1.780   1.106   7.560
  446TP3     H112365   1.868   1.146   7.575
  446TP3     H212366   1.778   1.039   7.632
  447TP3      O12367   1.813   0.919   7.753
  447TP3     H112368   1.735   0.870   7.788
  447TP3     H212369   1.872   0.927   7.830
  448TP3      O12370   1.789   1.185   8.251
  448TP3     H112371   1.867   1.143   8.210
  448TP3     H212372   1.807   1.280   8.234
  449TP3      O12373   1.646   1.471   8.476
  449TP3     H112374   1.578   1.515   8.530
  449TP3     H212375   1.592   1.441   8.400
  450TP3      O12376   1.844   0.891   7.394
  450TP3     H112377   1.787   0.921   7.320
  450TP3     H212378   1.836   0.970   7.451
  451TP3      O12379   1.597   0.763   7.811
  451TP3     H112380   1.581   0.668   7.802
  451TP3     H212381   1.569   0.779   7.903
  452TP3      O12382   0.094   0.964   8.221
  452TP3     H112383   0.107   0.969   8.123
  452TP3     H212384   0.186   0.952   8.252
  453TP3      O12385   1.685   0.959   8.786
  453TP3     H112386   1.747   0.882   8.790
  453TP3     H212387   1.746   1.035   8.778
  454TP3      O12388   1.832   0.746   8.841
  454TP3     H112389   1.743   0.707   8.827
  454TP3     H212390   1.888   0.666   8.839
  455TP3      O12391   1.565   0.530   7.656
  455TP3     H112392   1.589   0.435   7.667
  455TP3     H212393   1.646   0.566   7.618
  456TP3      O12394   1.628   0.580   8.200
  456TP3     H112395   1.725   0.602   8.199
  456TP3     H212396   1.611   0.589   8.295
  457TP3      O12397   1.631   0.649   8.469
  457TP3     H112398   1.544   0.679   8.504
  457TP3     H212399   1.677   0.734   8.451
  458TP3      O12400   0.080   0.499   8.825
  458TP3     H112401   0.168   0.468   8.855
  458TP3     H212402   0.022   0.426   8.849
  459TP3      O12403   1.838   0.084   8.998
  459TP3     H112404   1.888   0.010   8.957
  459TP3     H212405   1.863   0.155   8.936
  460TP3      O12406   1.632   0.270   7.655
  460TP3     H112407   1.658   0.223   7.738
  460TP3     H212408   1.567   0.205   7.621
  461TP3      O12409   0.165   0.335   8.116
  461TP3     H112410   0.221   0.256   8.130
  461TP3     H212411   0.226   0.402   8.151
  462TP3      O12412   0.059   0.633   8.241
  462TP3     H112413   0.101   0.620   8.153
  462TP3     H212414   0.072   0.730   8.246
  463TP3      O12415   1.812   0.281   8.830
  463TP3     H112416   1.715   0.293   8.837
  463TP3     H212417   1.812   0.213   8.762
  464TP3      O12418   0.085   0.254   7.615
  464TP3     H112419  -0.012   0.271   7.621
  464TP3     H212420   0.112   0.318   7.546
  465TP3      O12421   1.518   1.753   7.821
  465TP3     H112422   1.586   1.725   7.758
  465TP3     H212423   1.569   1.801   7.889
  466TP3      O12424   0.057   0.123   8.430
  466TP3     H112425   0.007   0.118   8.512
  466TP3     H212426   0.004   0.190   8.384
  467TP3      O12427   0.260   1.453   8.873
  467TP3     H112428   0.175   1.462   8.828
  467TP3     H212429   0.236   1.426   8.962
  468TP3      O12430   0.551   1.545   8.500
  468TP3     H112431   0.522   1.635   8.476
  468TP3     H212432   0.645   1.551   8.471
  469TP3      O12433   0.983   1.685   8.786
  469TP3     H112434   0.991   1.650   8.877
  469TP3     H212435   1.075   1.716   8.769
  470TP3      O12436   1.213   1.812   8.722
  470TP3     H112437   1.291   1.762   8.694
  470TP3     H212438   1.248   1.860   8.800
  471TP3      O12439   1.685   0.078   8.645
  471TP3     H112440   1.619   0.126   8.593
  471TP3     H212441   1.720   0.013   8.581
  472TP3      O12442   0.290   1.869   8.498
  472TP3     H112443   0.218   1.920   8.454
  472TP3     H212444   0.259   1.853   8.588
  473TP3      O12445   0.540   1.827   8.406
  473TP3     H112446   0.452   1.848   8.445
  473TP3     H212447   0.539   1.885   8.328
  474TP3      O12448   1.012   1.814   8.319
  474TP3     H112449   0.965   1.870   8.256
  474TP3     H212450   1.025   1.875   8.395
  475TP3      O12451   1.230   1.685   8.436
  475TP3     H112452   1.155   1.723   8.387
  475TP3     H212453   1.293   1.760   8.427
  476TP3      O12454   1.455   1.855   8.435
  476TP3     H112455   1.491   1.946   8.429
  476TP3     H212456   1.518   1.817   8.370
  477TP3      O12457   0.240   1.732   8.182
  477TP3     H112458   0.231   1.691   8.269
  477TP3     H212459   0.322   1.690   8.150
  478TP3      O12460   0.447   1.602   8.058
  478TP3     H112461   0.434   1.508   8.085
  478TP3     H212462   0.532   1.621   8.101
  479TP3      O12463   0.709   1.649   8.147
  479TP3     H112464   0.725   1.556   8.123
  479TP3     H212465   0.715   1.646   8.243
  480TP3      O12466   1.060   0.221   8.060
  480TP3     H112467   0.990   0.158   8.087
  480TP3     H212468   1.114   0.163   8.006
  481TP3      O12469   1.562   0.032   8.038
  481TP3     H112470   1.627   0.090   7.992
  481TP3     H212471   1.476   0.073   8.016
  482TP3      O12472   1.743   0.157   7.889
  482TP3     H112473   1.801   0.089   7.850
  482TP3     H212474   1.801   0.235   7.901
  483TP3      O12475   0.248   0.114   7.848
  483TP3     H112476   0.195   0.074   7.778
  483TP3     H212477   0.319   0.046   7.849
  484TP3      O12478   0.177   0.089   7.408
  484TP3     H112479   0.235   0.158   7.377
  484TP3     H212480   0.117   0.137   7.467
  485TP3      O12481   0.741   0.104   7.844
  485TP3     H112482   0.835   0.119   7.821
  485TP3     H212483   0.749   0.053   7.925
  486TP3      O12484   1.326   0.095   7.959
  486TP3     H112485   1.298   0.103   7.868
  486TP3     H212486   1.287   0.011   7.989
  487TP3      O12487   1.451   0.111   7.554
  487TP3     H112488   1.363   0.152   7.537
  487TP3     H212489   1.418   0.022   7.577
  488TP3      O12490   0.167   1.655   7.509
  488TP3     H112491   0.100   1.656   7.439
  488TP3     H212492   0.172   1.751   7.526
  489TP3      O12493   0.347   0.290   7.345
  489TP3     H112494   0.358   0.244   7.258
  489TP3     H212495   0.442   0.291   7.373
  490TP3      O12496   0.829   0.268   7.527
  490TP3     H112497   0.890   0.216   7.580
  490TP3     H212498   0.864   0.358   7.547
  491TP3      O12499   1.043   1.792   7.338
  491TP3     H112500   1.142   1.794   7.339
  491TP3     H212501   1.027   1.724   7.273
  492TP3      O12502   1.714   1.734   7.621
  492TP3     H112503   1.697   1.650   7.572
  492TP3     H212504   1.702   1.801   7.549
  493TP3      O12505   0.303   0.143   8.761
  493TP3     H112506   0.238   0.080   8.801
  493TP3     H212507   0.380   0.128   8.820
  494TP3      O12508   0.489   0.089   8.941
  494TP3     H112509   0.578   0.049   8.939
  494TP3     H212510   0.439   0.015   8.980
  495TP3      O12511   1.326   5.544   8.951
  495TP3     H112512   1.313   5.496   9.036
  495TP3     H212513   1.416   5.518   8.928
  496TP3      O12514   1.636   1.603   8.840
  496TP3     H112515   1.565   1.594   8.773
  496TP3     H212516   1.629   1.700   8.854
  497TP3      O12517   3.084   0.993   7.830
  497TP3     H112518   3.081   1.091   7.828
  497TP3     H212519   3.015   0.971   7.764
  498TP3      O12520   2.970   0.914   8.178
  498TP3     H112521   2.972   0.852   8.253
  498TP3     H212522   2.928   0.862   8.108
  499TP3      O12523   2.205   0.888   8.332
  499TP3     H112524   2.212   0.816   8.399
  499TP3     H212525   2.281   0.942   8.357
  500TP3      O12526   3.335   1.214   8.011
  500TP3     H112527   3.298   1.141   8.061
  500TP3     H212528   3.340   1.284   8.078
  501TP3      O12529   2.300   1.330   8.178
  501TP3     H112530   2.270   1.241   8.152
  501TP3     H212531   2.396   1.314   8.180
  502TP3      O12532   1.961   0.686   7.730
  502TP3     H112533   1.915   0.771   7.728
  502TP3     H212534   1.901   0.630   7.681
  503TP3      O12535   2.037   0.910   7.955
  503TP3     H112536   2.066   0.824   7.992
  503TP3     H212537   2.097   0.922   7.880
  504TP3      O12538   3.017   1.690   8.012
  504TP3     H112539   3.108   1.656   7.992
  504TP3     H212540   3.033   1.713   8.105
  505TP3      O12541   2.807   1.155   8.234
  505TP3     H112542   2.839   1.095   8.165
  505TP3     H212543   2.892   1.175   8.278
  506TP3      O12544   3.661   0.318   8.302
  506TP3     H112545   3.686   0.379   8.374
  506TP3     H212546   3.720   0.354   8.233
  507TP3      O12547   3.125   0.602   8.264
  507TP3     H112548   3.142   0.507   8.267
  507TP3     H212549   3.114   0.615   8.168
  508TP3      O12550   2.433   0.416   7.979
  508TP3     H112551   2.449   0.496   7.924
  508TP3     H212552   2.401   0.351   7.913
  509TP3      O12553   3.211   0.413   7.810
  509TP3     H112554   3.271   0.387   7.883
  509TP3     H212555   3.262   0.483   7.768
  510TP3      O12556   2.095   0.661   8.053
  510TP3     H112557   2.161   0.607   8.102
  510TP3     H212558   2.111   0.626   7.963
  511TP3      O12559   2.610   0.809   7.994
  511TP3     H112560   2.682   0.751   8.024
  511TP3     H212561   2.565   0.748   7.932
  512TP3      O12562   3.716   0.472   8.525
  512TP3     H112563   3.651   0.545   8.513
  512TP3     H212564   3.712   0.454   8.620
  513TP3      O12565   2.332   0.311   8.383
  513TP3     H112566   2.300   0.366   8.309
  513TP3     H212567   2.261   0.323   8.451
  514TP3      O12568   3.049   1.248   7.740
  514TP3     H112569   3.032   1.228   7.647
  514TP3     H212570   3.027   1.344   7.746
  515TP3      O12571   2.576   1.067   8.402
  515TP3     H112572   2.509   1.132   8.431
  515TP3     H212573   2.648   1.126   8.372
  516TP3      O12574   3.388   0.371   8.023
  516TP3     H112575   3.367   0.287   8.065
  516TP3     H212576   3.461   0.403   8.079
  517TP3      O12577   2.285   0.494   8.184
  517TP3     H112578   2.351   0.558   8.219
  517TP3     H212579   2.337   0.453   8.109
  518TP3      O12580   2.426   1.271   8.489
  518TP3     H112581   2.418   1.361   8.454
  518TP3     H212582   2.337   1.260   8.531
  519TP3      O12583   2.029   1.226   7.563
  519TP3     H112584   1.997   1.265   7.479
  519TP3     H212585   2.037   1.304   7.620
  520TP3      O12586   3.391   1.394   8.246
  520TP3     H112587   3.294   1.410   8.257
  520TP3     H212588   3.419   1.485   8.221
  521TP3      O12589   3.419   0.221   8.392
  521TP3     H112590   3.352   0.286   8.368
  521TP3     H212591   3.495   0.253   8.339
  522TP3      O12592   2.730   0.068   8.128
  522TP3     H112593   2.727  -0.029   8.128
  522TP3     H212594   2.638   0.087   8.157
  523TP3      O12595   3.221   1.573   7.899
  523TP3     H112596   3.264   1.502   7.848
  523TP3     H212597   3.271   1.652   7.870
  524TP3      O12598   3.339   1.367   7.756
  524TP3     H112599   3.312   1.300   7.690
  524TP3     H212600   3.341   1.314   7.837
  525TP3      O12601   3.497   1.230   8.604
  525TP3     H112602   3.514   1.162   8.535
  525TP3     H212603   3.522   1.311   8.555
  526TP3      O12604   2.959   0.922   7.578
  526TP3     H112605   2.880   0.970   7.547
  526TP3     H212606   3.020   0.933   7.504
  527TP3      O12607   2.957   0.761   7.303
  527TP3     H112608   3.044   0.782   7.337
  527TP3     H212609   2.977   0.712   7.224
  528TP3      O12610   3.691   0.861   8.404
  528TP3     H112611   3.627   0.935   8.406
  528TP3     H212612   3.744   0.887   8.326
  529TP3      O12613   3.304   0.941   7.680
  529TP3     H112614   3.225   0.959   7.736
  529TP3     H212615   3.348   0.870   7.729
  530TP3      O12616   3.290   0.753   8.589
  530TP3     H112617   3.287   0.838   8.635
  530TP3     H212618   3.229   0.777   8.516
  531TP3      O12619   2.458   1.004   7.862
  531TP3     H112620   2.429   0.967   7.775
  531TP3     H212621   2.518   0.934   7.897
  532TP3      O12622   2.583   1.332   8.133
  532TP3     H112623   2.593   1.293   8.045
  532TP3     H212624   2.666   1.303   8.176
  533TP3      O12625   2.487   0.876   8.234
  533TP3     H112626   2.538   0.883   8.151
  533TP3     H212627   2.529   0.944   8.290
  534TP3      O12628   3.134   1.436   8.304
  534TP3     H112629   3.105   1.504   8.367
  534TP3     H212630   3.107   1.353   8.348
  535TP3      O12631   2.587   1.321   8.701
  535TP3     H112632   2.538   1.389   8.752
  535TP3     H212633   2.523   1.299   8.630
  536TP3      O12634   2.283   0.936   8.607
  536TP3     H112635   2.291   1.002   8.679
  536TP3     H212636   2.186   0.935   8.599
  537TP3      O12637   2.955   1.530   7.774
  537TP3     H112638   2.997   1.558   7.858
  537TP3     H212639   2.898   1.607   7.761
  538TP3      O12640   2.411   1.519   8.774
  538TP3     H112641   2.401   1.516   8.677
  538TP3     H212642   2.318   1.506   8.802
  539TP3      O12643   3.523   0.056   7.392
  539TP3     H112644   3.447   0.054   7.454
  539TP3     H212645   3.549   0.148   7.390
  540TP3      O12646   2.355   0.901   7.626
  540TP3     H112647   2.325   0.980   7.575
  540TP3     H212648   2.287   0.836   7.605
  541TP3      O12649   3.682   1.471   7.292
  541TP3     H112650   3.675   1.563   7.267
  541TP3     H212651   3.753   1.440   7.236
  542TP3      O12652   1.962   1.147   8.523
  542TP3     H112653   1.919   1.142   8.435
  542TP3     H212654   1.974   1.051   8.540
  543TP3      O12655   1.941   1.415   8.194
  543TP3     H112656   2.037   1.413   8.190
  543TP3     H212657   1.927   1.504   8.233
  544TP3      O12658   3.762   1.492   8.768
  544TP3     H112659   3.748   1.396   8.761
  544TP3     H212660   3.674   1.518   8.805
  545TP3      O12661   2.857   1.443   8.652
  545TP3     H112662   2.861   1.527   8.704
  545TP3     H212663   2.769   1.406   8.675
  546TP3      O12664   2.904   1.818   7.621
  546TP3     H112665   2.901   1.816   7.524
  546TP3     H212666   2.908   1.913   7.644
  547TP3      O12667   2.270   1.707   7.816
  547TP3     H112668   2.287   1.668   7.905
  547TP3     H212669   2.182   1.670   7.799
  548TP3      O12670   3.174   1.740   7.605
  548TP3     H112671   3.078   1.742   7.619
  548TP3     H212672   3.201   1.663   7.658
  549TP3      O12673   3.475   0.641   8.808
  549TP3     H112674   3.424   0.683   8.737
  549TP3     H212675   3.473   0.547   8.783
  550TP3      O12676   2.193   1.279   8.609
  550TP3     H112677   2.212   1.244   8.699
  550TP3     H212678   2.104   1.241   8.590
  551TP3      O12679   2.473   0.131   8.219
  551TP3     H112680   2.392   0.118   8.166
  551TP3     H212681   2.445   0.210   8.267
  552TP3      O12682   2.923   0.109   8.543
  552TP3     H112683   2.966   0.060   8.613
  552TP3     H212684   2.829   0.082   8.553
  553TP3      O12685   3.251   0.477   8.625
  553TP3     H112686   3.195   0.457   8.704
  553TP3     H212687   3.241   0.573   8.611
  554TP3      O12688   2.886   0.345   7.274
  554TP3     H112689   2.870   0.343   7.369
  554TP3     H212690   2.856   0.256   7.253
  555TP3      O12691   2.469   0.625   8.332
  555TP3     H112692   2.396   0.629   8.396
  555TP3     H212693   2.466   0.716   8.293
  556TP3      O12694   2.464   0.633   7.826
  556TP3     H112695   2.370   0.613   7.807
  556TP3     H212696   2.504   0.608   7.740
  557TP3      O12697   3.016   0.687   7.689
  557TP3     H112698   2.987   0.774   7.653
  557TP3     H212699   3.088   0.663   7.628
  558TP3      O12700   2.923   0.709   8.835
  558TP3     H112701   2.874   0.629   8.865
  558TP3     H212702   3.007   0.700   8.883
  559TP3      O12703   3.125   0.639   7.978
  559TP3     H112704   3.091   0.695   7.906
  559TP3     H212705   3.128   0.553   7.934
  560TP3      O12706   2.230   0.648   8.494
  560TP3     H112707   2.249   0.687   8.580
  560TP3     H212708   2.190   0.563   8.518
  561TP3      O12709   1.903   0.369   7.896
  561TP3     H112710   1.964   0.362   7.971
  561TP3     H212711   1.949   0.322   7.826
  562TP3      O12712   2.022   0.442   7.447
  562TP3     H112713   2.076   0.481   7.375
  562TP3     H212714   1.958   0.513   7.464
  563TP3      O12715   3.037   0.791   8.427
  563TP3     H112716   3.080   0.721   8.373
  563TP3     H212717   2.989   0.740   8.495
  564TP3      O12718   2.727   0.413   7.922
  564TP3     H112719   2.634   0.388   7.940
  564TP3     H212720   2.769   0.368   7.997
  565TP3      O12721   2.201   0.547   7.800
  565TP3     H112722   2.113   0.560   7.760
  565TP3     H212723   2.231   0.464   7.759
  566TP3      O12724   2.562   0.571   7.581
  566TP3     H112725   2.657   0.547   7.577
  566TP3     H212726   2.548   0.614   7.494
  567TP3      O12727   3.166   0.305   8.242
  567TP3     H112728   3.096   0.321   8.309
  567TP3     H212729   3.117   0.288   8.160
  568TP3      O12730   3.480   1.880   8.885
  568TP3     H112731   3.506   1.911   8.796
  568TP3     H212732   3.557   1.912   8.935
  569TP3      O12733   2.248   1.123   8.834
  569TP3     H112734   2.318   1.149   8.897
  569TP3     H212735   2.170   1.125   8.893
  570TP3      O12736   2.849   0.669   8.107
  570TP3     H112737   2.906   0.613   8.053
  570TP3     H212738   2.833   0.613   8.183
  571TP3      O12739   2.351   0.283   7.747
  571TP3     H112740   2.324   0.190   7.750
  571TP3     H212741   2.428   0.276   7.688
  572TP3      O12742   2.714   0.496   8.350
  572TP3     H112743   2.633   0.551   8.355
  572TP3     H212744   2.772   0.536   8.417
  573TP3      O12745   2.768   1.129   7.523
  573TP3     H112746   2.695   1.074   7.485
  573TP3     H212747   2.742   1.136   7.617
  574TP3      O12748   3.499   1.048   8.398
  574TP3     H112749   3.549   1.100   8.331
  574TP3     H212750   3.411   1.044   8.356
  575TP3      O12751   2.920   1.154   8.643
  575TP3     H112752   2.885   1.106   8.718
  575TP3     H212753   2.890   1.244   8.658
  576TP3      O12754   3.226   0.585   7.503
  576TP3     H112755   3.316   0.578   7.542
  576TP3     H212756   3.237   0.659   7.442
  577TP3      O12757   2.284   1.064   8.097
  577TP3     H112758   2.346   1.053   8.023
  577TP3     H212759   2.291   0.980   8.145
  578TP3      O12760   2.983   1.265   7.425
  578TP3     H112761   2.950   1.347   7.464
  578TP3     H212762   2.908   1.204   7.440
  579TP3      O12763   1.981   0.900   8.626
  579TP3     H112764   1.993   0.854   8.711
  579TP3     H212765   1.920   0.842   8.577
  580TP3      O12766   2.684   0.857   8.839
  580TP3     H112767   2.647   0.820   8.757
  580TP3     H212768   2.775   0.821   8.836
  581TP3      O12769   3.157   1.393   8.642
  581TP3     H112770   3.064   1.410   8.615
  581TP3     H212771   3.149   1.424   8.735
  582TP3      O12772   3.702   0.616   7.483
  582TP3     H112773   3.656   0.587   7.403
  582TP3     H212774   3.725   0.708   7.458
  583TP3      O12775   3.718   1.194   8.754
  583TP3     H112776   3.628   1.218   8.720
  583TP3     H212777   3.770   1.189   8.670
  584TP3      O12778   3.551   1.489   7.517
  584TP3     H112779   3.501   1.412   7.547
  584TP3     H212780   3.573   1.467   7.423
  585TP3      O12781   3.271   0.975   8.227
  585TP3     H112782   3.177   0.958   8.211
  585TP3     H212783   3.313   0.901   8.179
  586TP3      O12784   2.524   1.407   7.838
  586TP3     H112785   2.569   1.491   7.820
  586TP3     H212786   2.434   1.427   7.808
  587TP3      O12787   2.662   1.177   7.784
  587TP3     H112788   2.623   1.266   7.795
  587TP3     H212789   2.596   1.122   7.832
  588TP3      O12790   2.707   1.596   8.437
  588TP3     H112791   2.761   1.669   8.400
  588TP3     H212792   2.772   1.558   8.497
  589TP3      O12793   2.530   1.669   7.740
  589TP3     H112794   2.434   1.683   7.760
  589TP3     H212795   2.566   1.753   7.773
  590TP3      O12796   3.051   1.189   8.391
  590TP3     H112797   3.027   1.171   8.484
  590TP3     H212798   3.118   1.120   8.372
  591TP3      O12799   3.291   1.305   7.312
  591TP3     H112800   3.324   1.242   7.376
  591TP3     H212801   3.199   1.279   7.304
  592TP3      O12802   3.345   1.650   8.638
  592TP3     H112803   3.270   1.606   8.594
  592TP3     H212804   3.361   1.720   8.571
  593TP3      O12805   3.749   1.755   7.356
  593TP3     H112806   3.798   1.810   7.296
  593TP3     H212807   3.661   1.794   7.354
  594TP3      O12808   2.150   0.374   8.580
  594TP3     H112809   2.060   0.411   8.580
  594TP3     H212810   2.136   0.287   8.624
  595TP3      O12811   3.369   1.163   7.535
  595TP3     H112812   3.344   1.076   7.573
  595TP3     H212813   3.466   1.159   7.543
  596TP3      O12814   2.110   1.545   8.420
  596TP3     H112815   2.149   1.456   8.424
  596TP3     H212816   2.132   1.583   8.506
  597TP3      O12817   2.586   1.365   7.391
  597TP3     H112818   2.610   1.306   7.464
  597TP3     H212819   2.594   1.454   7.433
  598TP3      O12820   2.244   1.083   7.448
  598TP3     H112821   2.163   1.120   7.489
  598TP3     H212822   2.289   1.162   7.418
  599TP3      O12823   3.025   0.350   8.476
  599TP3     H112824   3.092   0.357   8.546
  599TP3     H212825   2.979   0.267   8.500
  600TP3      O12826   3.111   0.301   7.572
  600TP3     H112827   3.112   0.375   7.510
  600TP3     H212828   3.150   0.342   7.652
  601TP3      O12829   2.820   0.479   7.665
  601TP3     H112830   2.891   0.545   7.671
  601TP3     H212831   2.786   0.470   7.756
  602TP3      O12832   2.878   0.591   8.589
  602TP3     H112833   2.883   0.643   8.672
  602TP3     H212834   2.943   0.520   8.598
  603TP3      O12835   2.907   0.179   7.764
  603TP3     H112836   2.861   0.249   7.814
  603TP3     H212837   2.964   0.236   7.709
  604TP3      O12838   2.599   1.626   7.467
  604TP3     H112839   2.622   1.710   7.420
  604TP3     H212840   2.578   1.660   7.557
  605TP3      O12841   2.468   0.306   7.433
  605TP3     H112842   2.468   0.399   7.460
  605TP3     H212843   2.558   0.277   7.450
  606TP3      O12844   3.489   0.377   8.668
  606TP3     H112845   3.396   0.406   8.654
  606TP3     H212846   3.519   0.368   8.577
  607TP3      O12847   3.353   0.753   8.069
  607TP3     H112848   3.272   0.707   8.040
  607TP3     H212849   3.402   0.685   8.122
  608TP3      O12850   2.294   1.346   7.341
  608TP3     H112851   2.362   1.412   7.365
  608TP3     H212852   2.339   1.307   7.266
  609TP3      O12853   3.465   1.670   8.235
  609TP3     H112854   3.441   1.742   8.173
  609TP3     H212855   3.559   1.688   8.251
  610TP3      O12856   2.236   0.126   8.093
  610TP3     H112857   2.195   0.120   8.005
  610TP3     H212858   2.183   0.056   8.137
  611TP3      O12859   2.097   1.474   7.720
  611TP3     H112860   2.017   1.526   7.731
  611TP3     H212861   2.153   1.528   7.664
  612TP3      O12862   2.018   1.752   8.865
  612TP3     H112863   2.083   1.733   8.935
  612TP3     H212864   1.982   1.664   8.845
  613TP3      O12865   2.496   1.635   9.020
  613TP3     H112866   2.575   1.588   9.051
  613TP3     H212867   2.493   1.608   8.926
  614TP3      O12868   3.131   1.483   8.902
  614TP3     H112869   3.105   1.392   8.927
  614TP3     H212870   3.216   1.494   8.950
  615TP3      O12871   2.006   1.120   8.962
  615TP3     H112872   2.025   1.030   8.929
  615TP3     H212873   1.940   1.149   8.895
  616TP3      O12874   2.684   1.123   8.889
  616TP3     H112875   2.651   1.158   8.804
  616TP3     H212876   2.687   1.025   8.878
  617TP3      O12877   3.252   1.109   8.641
  617TP3     H112878   3.333   1.164   8.638
  617TP3     H212879   3.185   1.180   8.642
  618TP3      O12880   2.110   0.847   8.900
  618TP3     H112881   2.149   0.759   8.895
  618TP3     H212882   2.091   0.854   8.996
  619TP3      O12883   2.581   0.964   7.415
  619TP3     H112884   2.517   0.914   7.466
  619TP3     H212885   2.598   0.901   7.343
  620TP3      O12886   2.493   0.740   8.630
  620TP3     H112887   2.436   0.816   8.654
  620TP3     H212888   2.540   0.778   8.554
  621TP3      O12889   3.008   1.002   8.988
  621TP3     H112890   3.098   0.989   8.954
  621TP3     H212891   2.988   0.919   9.034
  622TP3      O12892   2.544   0.483   8.733
  622TP3     H112893   2.553   0.414   8.665
  622TP3     H212894   2.532   0.564   8.679
  623TP3      O12895   2.581   0.321   8.496
  623TP3     H112896   2.629   0.368   8.423
  623TP3     H212897   2.490   0.313   8.458
  624TP3      O12898   2.728   0.871   8.520
  624TP3     H112899   2.806   0.855   8.466
  624TP3     H212900   2.691   0.953   8.482
  625TP3      O12901   3.169   0.636   9.009
  625TP3     H112902   3.194   0.542   9.007
  625TP3     H212903   3.255   0.680   9.016
  626TP3      O12904   3.308   0.924   8.842
  626TP3     H112905   3.281   0.992   8.776
  626TP3     H212906   3.402   0.915   8.819
  627TP3      O12907   2.388   0.601   8.936
  627TP3     H112908   2.309   0.548   8.914
  627TP3     H212909   2.449   0.575   8.864
  628TP3      O12910   2.656   0.066   8.533
  628TP3     H112911   2.637   0.163   8.526
  628TP3     H212912   2.581   0.031   8.483
  629TP3      O12913   2.784   0.496   8.901
  629TP3     H112914   2.750   0.467   8.988
  629TP3     H212915   2.708   0.474   8.843
  630TP3      O12916   3.058   0.401   8.808
  630TP3     H112917   2.963   0.413   8.823
  630TP3     H212918   3.083   0.346   8.885
  631TP3      O12919   3.217   0.283   8.997
  631TP3     H112920   3.213   0.185   8.995
  631TP3     H212921   3.188   0.305   9.089
  632TP3      O12922   2.192   0.394   8.914
  632TP3     H112923   2.216   0.320   8.854
  632TP3     H212924   2.184   0.351   9.002
  633TP3      O12925   2.644   5.521   8.792
  633TP3     H112926   2.723   5.467   8.810
  633TP3     H212927   2.665   5.553   8.702
  634TP3      O12928   2.717   0.167   9.012
  634TP3     H112929   2.699   0.111   8.935
  634TP3     H212930   2.653   0.239   9.001
  635TP3      O12931   2.659   1.849   7.328
  635TP3     H112932   2.755   1.862   7.340
  635TP3     H212933   2.634   1.922   7.270
  636TP3      O12934   2.023   1.318   7.287
  636TP3     H112935   2.121   1.323   7.301
  636TP3     H212936   2.014   1.250   7.219
  637TP3      O12937   1.893   1.846   7.779
  637TP3     H112938   1.823   1.798   7.728
  637TP3     H212939   1.914   1.784   7.852
  638TP3      O12940   1.985   1.660   7.964
  638TP3     H112941   1.937   1.579   7.987
  638TP3     H212942   1.995   1.699   8.054
  639TP3      O12943   3.739   1.740   8.253
  639TP3     H112944   3.735   1.757   8.349
  639TP3     H212945   3.805   1.804   8.227
  640TP3      O12946   3.685   1.703   8.549
  640TP3     H112947   3.638   1.628   8.507
  640TP3     H212948   3.727   1.657   8.624
  641TP3      O12949   3.534   1.271   9.025
  641TP3     H112950   3.443   1.275   9.060
  641TP3     H212951   3.570   1.356   9.057
  642TP3      O12952   3.668   1.105   7.555
  642TP3     H112953   3.751   1.147   7.584
  642TP3     H212954   3.660   1.039   7.626
  643TP3      O12955   3.704   0.920   7.747
  643TP3     H112956   3.623   0.873   7.781
  643TP3     H212957   3.758   0.928   7.828
  644TP3      O12958   3.676   1.184   8.249
  644TP3     H112959   3.754   1.143   8.209
  644TP3     H212960   3.691   1.279   8.233
  645TP3      O12961   3.532   1.474   8.476
  645TP3     H112962   3.462   1.514   8.530
  645TP3     H212963   3.479   1.442   8.400
  646TP3      O12964   3.725   0.895   7.390
  646TP3     H112965   3.663   0.920   7.319
  646TP3     H212966   3.716   0.972   7.450
  647TP3      O12967   3.487   0.761   7.812
  647TP3     H112968   3.466   0.666   7.802
  647TP3     H212969   3.454   0.780   7.902
  648TP3      O12970   1.983   0.973   8.217
  648TP3     H112971   1.996   0.961   8.121
  648TP3     H212972   2.073   0.951   8.249
  649TP3      O12973   3.570   0.960   8.784
  649TP3     H112974   3.632   0.883   8.790
  649TP3     H212975   3.632   1.036   8.778
  650TP3      O12976   3.718   0.746   8.841
  650TP3     H112977   3.629   0.707   8.827
  650TP3     H212978   3.774   0.666   8.839
  651TP3      O12979   3.494   0.334   7.142
  651TP3     H112980   3.560   0.321   7.213
  651TP3     H212981   3.413   0.314   7.189
  652TP3      O12982   3.448   0.529   7.653
  652TP3     H112983   3.471   0.434   7.664
  652TP3     H212984   3.531   0.564   7.618
  653TP3      O12985   3.514   0.579   8.200
  653TP3     H112986   3.610   0.602   8.199
  653TP3     H212987   3.497   0.589   8.295
  654TP3      O12988   3.517   0.649   8.469
  654TP3     H112989   3.429   0.678   8.504
  654TP3     H212990   3.563   0.734   8.451
  655TP3      O12991   1.954   0.507   8.835
  655TP3     H112992   2.043   0.471   8.851
  655TP3     H212993   1.899   0.426   8.848
  656TP3      O12994   3.724   0.084   8.998
  656TP3     H112995   3.773   0.010   8.957
  656TP3     H212996   3.748   0.155   8.936
  657TP3      O12997   3.519   0.271   7.659
  657TP3     H112998   3.543   0.222   7.741
  657TP3     H212999   3.455   0.205   7.622
  658TP3      O13000   2.057   0.334   8.123
  658TP3     H113001   2.111   0.254   8.138
  658TP3     H213002   2.120   0.402   8.149
  659TP3      O13003   1.894   0.634   8.220
  659TP3     H113004   1.949   0.607   8.144
  659TP3     H213005   1.944   0.713   8.246
  660TP3      O13006   3.697   0.281   8.830
  660TP3     H113007   3.601   0.293   8.837
  660TP3     H213008   3.697   0.213   8.762
  661TP3      O13009   3.695   0.259   7.313
  661TP3     H113010   3.729   0.185   7.259
  661TP3     H213011   3.772   0.317   7.323
  662TP3      O13012   1.921   0.251   7.610
  662TP3     H113013   1.830   0.284   7.614
  662TP3     H213014   1.968   0.314   7.552
  663TP3      O13015   3.400   1.754   7.818
  663TP3     H113016   3.471   1.724   7.760
  663TP3     H213017   3.447   1.802   7.889
  664TP3      O13018   1.939   0.144   8.457
  664TP3     H113019   1.877   0.105   8.520
  664TP3     H213020   1.879   0.192   8.397
  665TP3      O13021   2.151   1.444   8.865
  665TP3     H113022   2.066   1.468   8.826
  665TP3     H213023   2.127   1.430   8.957
  666TP3      O13024   2.435   1.547   8.498
  666TP3     H113025   2.410   1.637   8.472
  666TP3     H213026   2.530   1.551   8.472
  667TP3      O13027   2.867   1.685   8.786
  667TP3     H113028   2.876   1.650   8.877
  667TP3     H213029   2.959   1.716   8.770
  668TP3      O13030   3.095   1.812   8.728
  668TP3     H113031   3.170   1.763   8.692
  668TP3     H213032   3.136   1.860   8.804
  669TP3      O13033   3.571   0.079   8.645
  669TP3     H113034   3.505   0.127   8.593
  669TP3     H213035   3.605   0.012   8.582
  670TP3      O13036   2.181   1.868   8.496
  670TP3     H113037   2.108   1.920   8.459
  670TP3     H213038   2.152   1.853   8.587
  671TP3      O13039   2.427   1.827   8.404
  671TP3     H113040   2.338   1.845   8.441
  671TP3     H213041   2.424   1.883   8.325
  672TP3      O13042   2.881   1.810   8.329
  672TP3     H113043   2.859   1.868   8.255
  672TP3     H213044   2.917   1.875   8.393
  673TP3      O13045   3.113   1.686   8.449
  673TP3     H113046   3.045   1.715   8.386
  673TP3     H213047   3.177   1.752   8.415
  674TP3      O13048   3.396   1.845   8.450
  674TP3     H113049   3.382   1.940   8.428
  674TP3     H213050   3.390   1.810   8.359
  675TP3      O13051   2.148   1.741   8.195
  675TP3     H113052   2.113   1.684   8.266
  675TP3     H213053   2.217   1.687   8.153
  676TP3      O13054   2.336   1.600   8.057
  676TP3     H113055   2.322   1.507   8.085
  676TP3     H213056   2.420   1.621   8.102
  677TP3      O13057   2.597   1.650   8.146
  677TP3     H113058   2.611   1.557   8.122
  677TP3     H213059   2.601   1.647   8.243
  678TP3      O13060   2.944   0.221   8.060
  678TP3     H113061   2.874   0.159   8.086
  678TP3     H213062   2.997   0.163   8.004
  679TP3      O13063   3.446   0.031   8.040
  679TP3     H113064   3.512   0.089   7.996
  679TP3     H213065   3.361   0.072   8.017
  680TP3      O13066   3.628   0.156   7.890
  680TP3     H113067   3.684   0.087   7.849
  680TP3     H213068   3.686   0.234   7.899
  681TP3      O13069   2.136   0.112   7.848
  681TP3     H113070   2.074   0.072   7.787
  681TP3     H213071   2.203   0.040   7.853
  682TP3      O13072   2.067   0.093   7.403
  682TP3     H113073   2.111   0.165   7.352
  682TP3     H213074   2.006   0.139   7.462
  683TP3      O13075   2.627   0.111   7.850
  683TP3     H113076   2.720   0.120   7.823
  683TP3     H213077   2.635   0.051   7.924
  684TP3      O13078   3.213   0.095   7.956
  684TP3     H113079   3.178   0.100   7.866
  684TP3     H213080   3.174   0.012   7.990
  685TP3      O13081   3.339   0.111   7.568
  685TP3     H113082   3.255   0.150   7.538
  685TP3     H213083   3.305   0.019   7.573
  686TP3      O13084   2.238   0.256   7.279
  686TP3     H113085   2.269   0.188   7.216
  686TP3     H213086   2.318   0.274   7.330
  687TP3      O13087   2.932   1.785   7.341
  687TP3     H113088   3.028   1.795   7.335
  687TP3     H213089   2.919   1.719   7.272
  688TP3      O13090   3.596   1.730   7.623
  688TP3     H113091   3.576   1.648   7.571
  688TP3     H213092   3.582   1.799   7.559
  689TP3      O13093   2.181   0.147   8.763
  689TP3     H113094   2.122   0.075   8.795
  689TP3     H213095   2.262   0.128   8.817
  690TP3      O13096   2.370   0.088   8.939
  690TP3     H113097   2.461   0.054   8.935
  690TP3     H213098   2.327   0.008   8.974
  691TP3      O13099   3.213   5.544   8.951
  691TP3     H113100   3.201   5.498   9.038
  691TP3     H213101   3.302   5.518   8.928
  692TP3      O13102   3.526   1.606   8.834
  692TP3     H113103   3.449   1.593   8.775
  692TP3     H213104   3.515   1.702   8.851
  693TP3      O13105   4.967   0.992   7.832
  693TP3     H113106   4.967   1.090   7.826
  693TP3     H213107   4.898   0.971   7.767
  694TP3      O13108   4.857   0.913   8.181
  694TP3     H113109   4.860   0.849   8.254
  694TP3     H213110   4.815   0.862   8.108
  695TP3      O13111   4.091   0.888   8.332
  695TP3     H113112   4.097   0.816   8.398
  695TP3     H213113   4.167   0.942   8.358
  696TP3      O13114   5.217   1.219   8.007
  696TP3     H113115   5.189   1.141   8.055
  696TP3     H213116   5.238   1.279   8.081
  697TP3      O13117   4.182   1.334   8.174
  697TP3     H113118   4.153   1.243   8.151
  697TP3     H213119   4.278   1.317   8.181
  698TP3      O13120   3.852   0.686   7.719
  698TP3     H113121   3.800   0.767   7.731
  698TP3     H213122   3.789   0.629   7.674
  699TP3      O13123   3.921   0.909   7.953
  699TP3     H113124   3.952   0.825   7.992
  699TP3     H213125   3.983   0.923   7.880
  700TP3      O13126   4.934   1.730   8.030
  700TP3     H113127   5.000   1.663   7.999
  700TP3     H213128   4.909   1.690   8.115
  701TP3      O13129   4.693   1.152   8.236
  701TP3     H113130   4.724   1.095   8.165
  701TP3     H213131   4.778   1.172   8.280
  702TP3      O13132   5.004   0.600   8.264
  702TP3     H113133   5.034   0.508   8.267
  702TP3     H213134   5.002   0.615   8.167
  703TP3      O13135   4.318   0.416   7.978
  703TP3     H113136   4.334   0.496   7.923
  703TP3     H213137   4.287   0.351   7.911
  704TP3      O13138   5.098   0.415   7.819
  704TP3     H113139   5.165   0.384   7.884
  704TP3     H213140   5.148   0.480   7.768
  705TP3      O13141   3.981   0.659   8.053
  705TP3     H113142   4.046   0.607   8.101
  705TP3     H213143   3.997   0.625   7.963
  706TP3      O13144   4.496   0.810   7.991
  706TP3     H113145   4.567   0.752   8.023
  706TP3     H213146   4.449   0.747   7.932
  707TP3      O13147   4.218   0.311   8.383
  707TP3     H113148   4.185   0.366   8.309
  707TP3     H213149   4.147   0.323   8.451
  708TP3      O13150   4.937   1.251   7.742
  708TP3     H113151   4.911   1.228   7.651
  708TP3     H213152   4.906   1.343   7.748
  709TP3      O13153   4.462   1.067   8.402
  709TP3     H113154   4.394   1.132   8.431
  709TP3     H213155   4.533   1.125   8.372
  710TP3      O13156   5.275   0.368   8.017
  710TP3     H113157   5.251   0.286   8.062
  710TP3     H213158   5.342   0.404   8.076
  711TP3      O13159   4.171   0.494   8.184
  711TP3     H113160   4.237   0.558   8.219
  711TP3     H213161   4.223   0.453   8.109
  712TP3      O13162   4.312   1.270   8.488
  712TP3     H113163   4.304   1.362   8.454
  712TP3     H213164   4.223   1.260   8.531
  713TP3      O13165   3.913   1.224   7.572
  713TP3     H113166   3.900   1.266   7.488
  713TP3     H213167   3.927   1.302   7.630
  714TP3      O13168   5.269   1.394   8.242
  714TP3     H113169   5.173   1.409   8.256
  714TP3     H213170   5.301   1.484   8.223
  715TP3      O13171   5.320   0.222   8.384
  715TP3     H113172   5.237   0.273   8.373
  715TP3     H213173   5.375   0.270   8.323
  716TP3      O13174   4.615   0.067   8.122
  716TP3     H113175   4.613  -0.030   8.127
  716TP3     H213176   4.524   0.086   8.155
  717TP3      O13177   5.105   1.575   7.902
  717TP3     H113178   5.144   1.501   7.851
  717TP3     H213179   5.157   1.651   7.867
  718TP3      O13180   5.223   1.360   7.742
  718TP3     H113181   5.181   1.288   7.693
  718TP3     H213182   5.228   1.319   7.832
  719TP3      O13183   5.381   1.228   8.615
  719TP3     H113184   5.405   1.163   8.546
  719TP3     H213185   5.406   1.311   8.569
  720TP3      O13186   4.840   0.926   7.581
  720TP3     H113187   4.770   0.980   7.539
  720TP3     H213188   4.902   0.925   7.506
  721TP3      O13189   5.174   0.941   7.673
  721TP3     H113190   5.102   0.963   7.737
  721TP3     H213191   5.227   0.879   7.727
  722TP3      O13192   5.173   0.758   8.585
  722TP3     H113193   5.165   0.838   8.638
  722TP3     H213194   5.111   0.780   8.513
  723TP3      O13195   4.342   1.002   7.863
  723TP3     H113196   4.314   0.963   7.778
  723TP3     H213197   4.404   0.935   7.898
  724TP3      O13198   4.472   1.337   8.131
  724TP3     H113199   4.476   1.290   8.047
  724TP3     H213200   4.553   1.303   8.176
  725TP3      O13201   4.373   0.875   8.234
  725TP3     H113202   4.423   0.883   8.151
  725TP3     H213203   4.415   0.944   8.290
  726TP3      O13204   5.015   1.437   8.303
  726TP3     H113205   4.991   1.501   8.371
  726TP3     H213206   4.993   1.352   8.346
  727TP3      O13207   4.472   1.322   8.699
  727TP3     H113208   4.423   1.389   8.751
  727TP3     H213209   4.407   1.299   8.629
  728TP3      O13210   5.106   0.841   7.438
  728TP3     H113211   5.119   0.883   7.526
  728TP3     H213212   5.087   0.916   7.380
  729TP3      O13213   4.168   0.936   8.607
  729TP3     H113214   4.176   1.000   8.681
  729TP3     H213215   4.071   0.935   8.599
  730TP3      O13216   4.839   1.528   7.793
  730TP3     H113217   4.883   1.561   7.872
  730TP3     H213218   4.789   1.604   7.762
  731TP3      O13219   4.298   1.519   8.774
  731TP3     H113220   4.287   1.516   8.677
  731TP3     H213221   4.206   1.505   8.803
  732TP3      O13222   5.442   0.043   7.411
  732TP3     H113223   5.347   0.037   7.433
  732TP3     H213224   5.448   0.129   7.369
  733TP3      O13225   4.241   0.894   7.616
  733TP3     H113226   4.208   0.980   7.585
  733TP3     H213227   4.167   0.833   7.603
  734TP3      O13228   3.848   1.147   8.523
  734TP3     H113229   3.804   1.139   8.436
  734TP3     H213230   3.861   1.051   8.541
  735TP3      O13231   3.823   1.422   8.192
  735TP3     H113232   3.919   1.409   8.192
  735TP3     H213233   3.814   1.505   8.241
  736TP3      O13234   4.742   1.444   8.651
  736TP3     H113235   4.746   1.527   8.705
  736TP3     H213236   4.655   1.406   8.674
  737TP3      O13237   4.794   1.818   7.632
  737TP3     H113238   4.781   1.815   7.537
  737TP3     H213239   4.792   1.913   7.653
  738TP3      O13240   4.153   1.708   7.817
  738TP3     H113241   4.170   1.665   7.903
  738TP3     H213242   4.068   1.667   7.794
  739TP3      O13243   5.083   1.738   7.323
  739TP3     H113244   5.140   1.672   7.284
  739TP3     H213245   5.092   1.722   7.418
  740TP3      O13246   5.059   1.734   7.604
  740TP3     H113247   4.962   1.743   7.621
  740TP3     H213248   5.081   1.662   7.664
  741TP3      O13249   5.343   0.648   8.806
  741TP3     H113250   5.300   0.676   8.724
  741TP3     H213251   5.373   0.557   8.782
  742TP3      O13252   4.080   1.278   8.612
  742TP3     H113253   4.099   1.243   8.702
  742TP3     H213254   3.991   1.241   8.591
  743TP3      O13255   4.359   0.131   8.220
  743TP3     H113256   4.278   0.118   8.166
  743TP3     H213257   4.331   0.211   8.268
  744TP3      O13258   4.809   0.106   8.543
  744TP3     H113259   4.851   0.060   8.615
  744TP3     H213260   4.714   0.081   8.553
  745TP3      O13261   5.138   0.480   8.619
  745TP3     H113262   5.089   0.459   8.702
  745TP3     H213263   5.123   0.576   8.609
  746TP3      O13264   4.355   0.626   8.337
  746TP3     H113265   4.279   0.629   8.398
  746TP3     H213266   4.351   0.715   8.295
  747TP3      O13267   4.351   0.630   7.819
  747TP3     H113268   4.256   0.610   7.805
  747TP3     H213269   4.386   0.605   7.730
  748TP3      O13270   4.899   0.687   7.686
  748TP3     H113271   4.869   0.775   7.654
  748TP3     H213272   4.971   0.665   7.626
  749TP3      O13273   4.808   0.708   8.833
  749TP3     H113274   4.760   0.628   8.864
  749TP3     H213275   4.892   0.701   8.883
  750TP3      O13276   5.005   0.640   7.982
  750TP3     H113277   4.977   0.695   7.907
  750TP3     H213278   5.017   0.554   7.937
  751TP3      O13279   4.116   0.648   8.493
  751TP3     H113280   4.135   0.687   8.580
  751TP3     H213281   4.076   0.563   8.517
  752TP3      O13282   3.788   0.370   7.896
  752TP3     H113283   3.851   0.361   7.970
  752TP3     H213284   3.831   0.322   7.824
  753TP3      O13285   3.900   0.436   7.431
  753TP3     H113286   3.961   0.491   7.379
  753TP3     H213287   3.842   0.504   7.471
  754TP3      O13288   4.923   0.793   8.427
  754TP3     H113289   4.967   0.723   8.373
  754TP3     H213290   4.877   0.739   8.494
  755TP3      O13291   4.612   0.414   7.924
  755TP3     H113292   4.520   0.388   7.940
  755TP3     H213293   4.654   0.368   7.999
  756TP3      O13294   4.083   0.546   7.809
  756TP3     H113295   4.000   0.563   7.760
  756TP3     H213296   4.118   0.465   7.765
  757TP3      O13297   4.445   0.561   7.575
  757TP3     H113298   4.542   0.552   7.582
  757TP3     H213299   4.432   0.614   7.494
  758TP3      O13300   5.046   0.303   8.244
  758TP3     H113301   4.977   0.322   8.311
  758TP3     H213302   4.994   0.290   8.162
  759TP3      O13303   5.369   1.881   8.895
  759TP3     H113304   5.391   1.908   8.803
  759TP3     H213305   5.448   1.914   8.939
  760TP3      O13306   4.134   1.123   8.835
  760TP3     H113307   4.204   1.149   8.898
  760TP3     H213308   4.055   1.125   8.893
  761TP3      O13309   4.736   0.668   8.105
  761TP3     H113310   4.799   0.614   8.056
  761TP3     H213311   4.718   0.613   8.183
  762TP3      O13312   4.234   0.287   7.745
  762TP3     H113313   4.203   0.195   7.756
  762TP3     H213314   4.312   0.274   7.690
  763TP3      O13315   4.599   0.496   8.349
  763TP3     H113316   4.518   0.551   8.355
  763TP3     H213317   4.658   0.535   8.416
  764TP3      O13318   4.648   1.126   7.519
  764TP3     H113319   4.574   1.072   7.485
  764TP3     H213320   4.628   1.140   7.613
  765TP3      O13321   5.380   1.051   8.399
  765TP3     H113322   5.433   1.082   8.325
  765TP3     H213323   5.293   1.040   8.356
  766TP3      O13324   4.806   1.154   8.643
  766TP3     H113325   4.772   1.106   8.719
  766TP3     H213326   4.775   1.244   8.658
  767TP3      O13327   5.111   0.575   7.498
  767TP3     H113328   5.198   0.580   7.542
  767TP3     H213329   5.109   0.663   7.453
  768TP3      O13330   4.170   1.065   8.098
  768TP3     H113331   4.232   1.053   8.024
  768TP3     H213332   4.177   0.981   8.147
  769TP3      O13333   4.870   1.273   7.450
  769TP3     H113334   4.818   1.354   7.462
  769TP3     H213335   4.801   1.204   7.436
  770TP3      O13336   3.867   0.900   8.626
  770TP3     H113337   3.879   0.854   8.711
  770TP3     H213338   3.805   0.842   8.577
  771TP3      O13339   4.570   0.857   8.839
  771TP3     H113340   4.533   0.820   8.757
  771TP3     H213341   4.661   0.821   8.836
  772TP3      O13342   5.036   1.390   8.642
  772TP3     H113343   4.944   1.410   8.619
  772TP3     H213344   5.038   1.424   8.734
  773TP3      O13345   5.446   1.478   7.509
  773TP3     H113346   5.385   1.412   7.543
  773TP3     H213347   5.455   1.465   7.415
  774TP3      O13348   5.153   0.968   8.237
  774TP3     H113349   5.059   0.955   8.214
  774TP3     H213350   5.195   0.901   8.179
  775TP3      O13351   4.406   1.407   7.835
  775TP3     H113352   4.456   1.488   7.815
  775TP3     H213353   4.318   1.432   7.803
  776TP3      O13354   4.549   1.174   7.790
  776TP3     H113355   4.513   1.265   7.795
  776TP3     H213356   4.478   1.122   7.833
  777TP3      O13357   4.591   1.595   8.436
  777TP3     H113358   4.643   1.670   8.403
  777TP3     H213359   4.655   1.556   8.499
  778TP3      O13360   4.416   1.670   7.733
  778TP3     H113361   4.322   1.681   7.761
  778TP3     H213362   4.454   1.750   7.772
  779TP3      O13363   4.935   1.187   8.390
  779TP3     H113364   4.912   1.171   8.484
  779TP3     H213365   4.999   1.116   8.373
  780TP3      O13366   5.229   1.645   8.637
  780TP3     H113367   5.153   1.601   8.595
  780TP3     H213368   5.246   1.717   8.573
  781TP3      O13369   4.035   0.374   8.580
  781TP3     H113370   3.945   0.411   8.580
  781TP3     H213371   4.021   0.288   8.624
  782TP3      O13372   5.265   1.152   7.521
  782TP3     H113373   5.229   1.086   7.584
  782TP3     H213374   5.353   1.168   7.556
  783TP3      O13375   3.993   1.549   8.420
  783TP3     H113376   4.032   1.461   8.421
  783TP3     H213377   4.020   1.584   8.506
  784TP3      O13378   4.456   1.365   7.399
  784TP3     H113379   4.501   1.311   7.465
  784TP3     H213380   4.473   1.458   7.427
  785TP3      O13381   4.906   0.350   8.478
  785TP3     H113382   4.975   0.357   8.546
  785TP3     H213383   4.863   0.265   8.501
  786TP3      O13384   4.994   0.307   7.582
  786TP3     H113385   4.997   0.377   7.515
  786TP3     H213386   5.045   0.349   7.655
  787TP3      O13387   4.758   1.538   7.470
  787TP3     H113388   4.669   1.576   7.471
  787TP3     H213389   4.798   1.573   7.390
  788TP3      O13390   4.703   0.478   7.669
  788TP3     H113391   4.775   0.544   7.670
  788TP3     H213392   4.674   0.475   7.763
  789TP3      O13393   4.762   0.589   8.588
  789TP3     H113394   4.768   0.643   8.670
  789TP3     H213395   4.828   0.520   8.597
  790TP3      O13396   4.783   0.183   7.754
  790TP3     H113397   4.751   0.247   7.820
  790TP3     H213398   4.852   0.239   7.711
  791TP3      O13399   4.489   1.629   7.470
  791TP3     H113400   4.506   1.709   7.418
  791TP3     H213401   4.459   1.662   7.558
  792TP3      O13402   4.356   0.306   7.420
  792TP3     H113403   4.347   0.394   7.459
  792TP3     H213404   4.444   0.279   7.454
  793TP3      O13405   5.376   0.380   8.667
  793TP3     H113406   5.282   0.407   8.652
  793TP3     H213407   5.411   0.380   8.577
  794TP3      O13408   5.235   0.757   8.067
  794TP3     H113409   5.154   0.712   8.039
  794TP3     H213410   5.276   0.686   8.121
  795TP3      O13411   5.348   1.679   8.238
  795TP3     H113412   5.332   1.744   8.167
  795TP3     H213413   5.442   1.685   8.253
  796TP3      O13414   4.123   0.124   8.092
  796TP3     H113415   4.080   0.120   8.003
  796TP3     H213416   4.068   0.056   8.136
  797TP3      O13417   3.983   1.486   7.735
  797TP3     H113418   3.898   1.530   7.733
  797TP3     H213419   4.029   1.526   7.660
  798TP3      O13420   3.900   1.752   8.860
  798TP3     H113421   3.967   1.735   8.931
  798TP3     H213422   3.867   1.662   8.844
  799TP3      O13423   4.382   1.635   9.020
  799TP3     H113424   4.461   1.589   9.051
  799TP3     H213425   4.378   1.608   8.926
  800TP3      O13426   5.014   1.484   8.901
  800TP3     H113427   4.993   1.391   8.926
  800TP3     H213428   5.099   1.496   8.949
  801TP3      O13429   3.892   1.121   8.961
  801TP3     H113430   3.911   1.030   8.929
  801TP3     H213431   3.827   1.150   8.895
  802TP3      O13432   4.570   1.124   8.889
  802TP3     H113433   4.536   1.159   8.804
  802TP3     H213434   4.572   1.026   8.878
  803TP3      O13435   5.138   1.108   8.637
  803TP3     H113436   5.219   1.163   8.639
  803TP3     H213437   5.072   1.179   8.640
  804TP3      O13438   3.996   0.847   8.900
  804TP3     H113439   4.035   0.759   8.895
  804TP3     H213440   3.977   0.854   8.996
  805TP3      O13441   4.454   0.959   7.411
  805TP3     H113442   4.399   0.903   7.467
  805TP3     H213443   4.485   0.898   7.342
  806TP3      O13444   4.379   0.741   8.631
  806TP3     H113445   4.322   0.816   8.653
  806TP3     H213446   4.426   0.778   8.554
  807TP3      O13447   4.889   1.000   8.987
  807TP3     H113448   4.980   0.989   8.954
  807TP3     H213449   4.873   0.917   9.035
  808TP3      O13450   5.478   1.134   7.133
  808TP3     H113451   5.482   1.040   7.105
  808TP3     H213452   5.548   1.176   7.084
  809TP3      O13453   4.430   0.483   8.733
  809TP3     H113454   4.439   0.414   8.665
  809TP3     H213455   4.418   0.564   8.679
  810TP3      O13456   4.467   0.321   8.497
  810TP3     H113457   4.515   0.368   8.424
  810TP3     H213458   4.376   0.313   8.459
  811TP3      O13459   4.614   0.872   8.520
  811TP3     H113460   4.692   0.855   8.466
  811TP3     H213461   4.577   0.953   8.481
  812TP3      O13462   5.053   0.637   9.009
  812TP3     H113463   5.080   0.544   9.003
  812TP3     H213464   5.139   0.682   9.006
  813TP3      O13465   5.186   0.926   8.840
  813TP3     H113466   5.164   0.998   8.776
  813TP3     H213467   5.280   0.913   8.816
  814TP3      O13468   4.273   0.600   8.936
  814TP3     H113469   4.194   0.548   8.914
  814TP3     H213470   4.334   0.573   8.864
  815TP3      O13471   4.541   0.066   8.532
  815TP3     H113472   4.522   0.163   8.526
  815TP3     H213473   4.466   0.031   8.483
  816TP3      O13474   4.669   0.496   8.901
  816TP3     H113475   4.636   0.467   8.988
  816TP3     H213476   4.594   0.474   8.843
  817TP3      O13477   4.941   0.402   8.808
  817TP3     H113478   4.846   0.413   8.824
  817TP3     H213479   4.968   0.346   8.884
  818TP3      O13480   5.101   0.281   8.997
  818TP3     H113481   5.096   0.183   8.996
  818TP3     H213482   5.071   0.303   9.089
  819TP3      O13483   4.077   0.394   8.914
  819TP3     H113484   4.101   0.320   8.854
  819TP3     H213485   4.070   0.352   9.002
  820TP3      O13486   4.530   5.522   8.792
  820TP3     H113487   4.610   5.469   8.812
  820TP3     H213488   4.551   5.553   8.702
  821TP3      O13489   4.604   0.167   9.012
  821TP3     H113490   4.585   0.111   8.935
  821TP3     H213491   4.540   0.239   9.001
  822TP3      O13492   3.783   1.844   7.768
  822TP3     H113493   3.707   1.795   7.730
  822TP3     H213494   3.806   1.787   7.844
  823TP3      O13495   3.864   1.662   7.969
  823TP3     H113496   3.824   1.578   7.993
  823TP3     H213497   3.891   1.697   8.056
  824TP3      O13498   5.412   1.268   9.023
  824TP3     H113499   5.321   1.270   9.059
  824TP3     H213500   5.447   1.354   9.051
  825TP3      O13501   5.412   1.462   8.477
  825TP3     H113502   5.350   1.516   8.528
  825TP3     H213503   5.363   1.432   8.398
  826TP3      O13504   5.376   0.555   7.191
  826TP3     H113505   5.399   0.641   7.153
  826TP3     H213506   5.428   0.493   7.138
  827TP3      O13507   5.356   0.761   7.805
  827TP3     H113508   5.351   0.665   7.809
  827TP3     H213509   5.336   0.785   7.898
  828TP3      O13510   3.869   0.973   8.217
  828TP3     H113511   3.882   0.962   8.121
  828TP3     H213512   3.959   0.951   8.250
  829TP3      O13513   5.454   0.960   8.801
  829TP3     H113514   5.509   0.881   8.787
  829TP3     H213515   5.497   1.029   8.749
  830TP3      O13516   5.384   0.301   7.139
  830TP3     H113517   5.428   0.327   7.219
  830TP3     H213518   5.293   0.332   7.155
  831TP3      O13519   5.328   0.520   7.656
  831TP3     H113520   5.350   0.426   7.681
  831TP3     H213521   5.410   0.548   7.614
  832TP3      O13522   5.349   0.562   8.207
  832TP3     H113523   5.444   0.573   8.183
  832TP3     H213524   5.365   0.584   8.300
  833TP3      O13525   5.406   0.646   8.483
  833TP3     H113526   5.316   0.677   8.507
  833TP3     H213527   5.448   0.727   8.451
  834TP3      O13528   3.839   0.507   8.835
  834TP3     H113529   3.929   0.471   8.851
  834TP3     H213530   3.785   0.426   8.848
  835TP3      O13531   5.368   0.266   7.685
  835TP3     H113532   5.412   0.206   7.750
  835TP3     H213533   5.321   0.197   7.632
  836TP3      O13534   3.943   0.333   8.123
  836TP3     H113535   3.999   0.255   8.139
  836TP3     H213536   4.006   0.402   8.148
  837TP3      O13537   3.779   0.634   8.220
  837TP3     H113538   3.835   0.607   8.144
  837TP3     H213539   3.830   0.712   8.246
  838TP3      O13540   3.812   0.257   7.622
  838TP3     H113541   3.717   0.280   7.619
  838TP3     H213542   3.853   0.313   7.555
  839TP3      O13543   5.286   1.755   7.825
  839TP3     H113544   5.349   1.722   7.758
  839TP3     H213545   5.344   1.798   7.891
  840TP3      O13546   3.825   0.144   8.457
  840TP3     H113547   3.762   0.106   8.521
  840TP3     H213548   3.765   0.192   8.397
  841TP3      O13549   4.037   1.444   8.866
  841TP3     H113550   3.951   1.467   8.827
  841TP3     H213551   4.013   1.430   8.958
  842TP3      O13552   4.323   1.546   8.499
  842TP3     H113553   4.300   1.637   8.475
  842TP3     H213554   4.417   1.548   8.472
  843TP3      O13555   4.753   1.687   8.786
  843TP3     H113556   4.762   1.650   8.877
  843TP3     H213557   4.845   1.718   8.769
  844TP3      O13558   4.983   1.814   8.721
  844TP3     H113559   5.055   1.753   8.699
  844TP3     H213560   5.021   1.861   8.799
  845TP3      O13561   5.455   0.053   8.650
  845TP3     H113562   5.389   0.105   8.602
  845TP3     H213563   5.483  -0.017   8.590
  846TP3      O13564   4.066   1.867   8.495
  846TP3     H113565   3.993   1.918   8.458
  846TP3     H213566   4.039   1.852   8.587
  847TP3      O13567   4.313   1.824   8.402
  847TP3     H113568   4.224   1.842   8.441
  847TP3     H213569   4.309   1.885   8.326
  848TP3      O13570   4.784   1.814   8.319
  848TP3     H113571   4.738   1.871   8.256
  848TP3     H213572   4.796   1.874   8.395
  849TP3      O13573   5.007   1.687   8.434
  849TP3     H113574   4.928   1.721   8.387
  849TP3     H213575   5.062   1.766   8.425
  850TP3      O13576   5.257   1.851   8.447
  850TP3     H113577   5.262   1.946   8.421
  850TP3     H213578   5.290   1.808   8.366
  851TP3      O13579   4.021   1.732   8.193
  851TP3     H113580   4.007   1.681   8.276
  851TP3     H213581   4.099   1.690   8.154
  852TP3      O13582   4.221   1.600   8.056
  852TP3     H113583   4.207   1.508   8.084
  852TP3     H213584   4.307   1.621   8.099
  853TP3      O13585   4.479   1.651   8.147
  853TP3     H113586   4.495   1.558   8.123
  853TP3     H213587   4.486   1.647   8.243
  854TP3      O13588   4.830   0.221   8.058
  854TP3     H113589   4.761   0.158   8.089
  854TP3     H213590   4.882   0.162   8.003
  855TP3      O13591   5.339   0.041   8.058
  855TP3     H113592   5.399   0.086   7.995
  855TP3     H213593   5.252   0.066   8.020
  856TP3      O13594  -0.029   0.149   7.887
  856TP3     H113595   0.035   0.080   7.860
  856TP3     H213596   0.028   0.221   7.916
  857TP3      O13597   4.026   0.114   7.847
  857TP3     H113598   3.959   0.074   7.790
  857TP3     H213599   4.091   0.041   7.852
  858TP3      O13600   3.973   0.102   7.420
  858TP3     H113601   3.989   0.167   7.351
  858TP3     H213602   3.890   0.130   7.463
  859TP3      O13603   4.514   0.110   7.849
  859TP3     H113604   4.607   0.117   7.821
  859TP3     H213605   4.522   0.053   7.926
  860TP3      O13606   5.104   0.088   7.961
  860TP3     H113607   5.074   0.103   7.871
  860TP3     H213608   5.056   0.008   7.990
  861TP3      O13609   5.222   0.103   7.555
  861TP3     H113610   5.139   0.150   7.540
  861TP3     H213611   5.188   0.012   7.554
  862TP3      O13612   3.943   1.653   7.513
  862TP3     H113613   3.868   1.642   7.451
  862TP3     H213614   3.922   1.741   7.547
  863TP3      O13615   4.606   0.267   7.518
  863TP3     H113616   4.655   0.218   7.586
  863TP3     H213617   4.636   0.357   7.542
  864TP3      O13618   5.436   1.721   7.604
  864TP3     H113619   5.456   1.639   7.554
  864TP3     H213620   5.468   1.789   7.540
  865TP3      O13621   4.067   0.147   8.763
  865TP3     H113622   4.008   0.075   8.795
  865TP3     H213623   4.147   0.128   8.818
  866TP3      O13624   4.255   0.089   8.939
  866TP3     H113625   4.347   0.055   8.936
  866TP3     H213626   4.213   0.008   8.975
  867TP3      O13627   4.111   1.757   7.220
  867TP3     H113628   4.088   1.766   7.313
  867TP3     H213629   4.184   1.693   7.223
  868TP3      O13630   5.091   5.543   8.952
  868TP3     H113631   5.087   5.497   9.039
  868TP3     H213632   5.179   5.517   8.924
  869TP3      O13633   5.407   1.603   8.844
  869TP3     H113634   5.339   1.588   8.774
  869TP3     H213635   5.403   1.700   8.851
  870TP3      O13636   1.204   2.880   7.824
  870TP3     H113637   1.196   2.977   7.829
  870TP3     H213638   1.124   2.856   7.775
  871TP3      O13639   1.087   2.798   8.175
  871TP3     H113640   1.087   2.738   8.252
  871TP3     H213641   1.042   2.745   8.106
  872TP3      O13642   0.317   2.773   8.337
  872TP3     H113643   0.325   2.699   8.402
  872TP3     H213644   0.396   2.826   8.358
  873TP3      O13645   1.446   3.097   8.010
  873TP3     H113646   1.411   3.024   8.062
  873TP3     H213647   1.456   3.167   8.078
  874TP3      O13648   0.406   3.216   8.178
  874TP3     H113649   0.381   3.126   8.150
  874TP3     H213650   0.502   3.202   8.183
  875TP3      O13651   0.088   2.580   7.707
  875TP3     H113652   0.032   2.653   7.738
  875TP3     H213653   0.024   2.511   7.692
  876TP3      O13654   0.152   2.791   7.955
  876TP3     H113655   0.184   2.707   7.993
  876TP3     H213656   0.218   2.809   7.887
  877TP3      O13657   1.161   3.615   8.032
  877TP3     H113658   1.228   3.550   8.001
  877TP3     H213659   1.138   3.575   8.116
  878TP3      O13660   0.922   3.042   8.233
  878TP3     H113661   0.952   2.983   8.162
  878TP3     H213662   1.006   3.058   8.279
  879TP3      O13663   1.771   2.223   8.288
  879TP3     H113664   1.798   2.266   8.372
  879TP3     H213665   1.845   2.249   8.232
  880TP3      O13666   1.237   2.489   8.263
  880TP3     H113667   1.258   2.393   8.266
  880TP3     H213668   1.229   2.501   8.167
  881TP3      O13669   0.544   2.297   7.974
  881TP3     H113670   0.562   2.379   7.924
  881TP3     H213671   0.511   2.239   7.902
  882TP3      O13672   1.321   2.301   7.818
  882TP3     H113673   1.384   2.274   7.889
  882TP3     H213674   1.374   2.366   7.770
  883TP3      O13675   0.234   2.547   8.044
  883TP3     H113676   0.283   2.482   8.096
  883TP3     H213677   0.234   2.504   7.956
  884TP3      O13678   0.724   2.694   7.993
  884TP3     H113679   0.797   2.636   8.022
  884TP3     H213680   0.677   2.632   7.933
  885TP3      O13681   1.832   2.354   8.527
  885TP3     H113682   1.764   2.423   8.510
  885TP3     H213683   1.825   2.343   8.623
  886TP3      O13684   0.440   2.187   8.385
  886TP3     H113685   0.419   2.246   8.310
  886TP3     H213686   0.370   2.212   8.450
  887TP3      O13687   1.167   3.135   7.738
  887TP3     H113688   1.142   3.115   7.647
  887TP3     H213689   1.139   3.230   7.744
  888TP3      O13690   0.689   2.951   8.403
  888TP3     H113691   0.620   3.015   8.432
  888TP3     H213692   0.760   3.012   8.375
  889TP3      O13693   1.504   2.247   8.015
  889TP3     H113694   1.483   2.168   8.066
  889TP3     H213695   1.577   2.283   8.068
  890TP3      O13696   0.404   2.371   8.189
  890TP3     H113697   0.462   2.444   8.218
  890TP3     H213698   0.453   2.336   8.109
  891TP3      O13699   0.540   3.155   8.483
  891TP3     H113700   0.533   3.247   8.453
  891TP3     H213701   0.453   3.145   8.528
  892TP3      O13702   0.160   3.116   7.561
  892TP3     H113703   0.106   3.141   7.486
  892TP3     H213704   0.153   3.192   7.622
  893TP3      O13705   1.504   3.283   8.244
  893TP3     H113706   1.407   3.296   8.255
  893TP3     H213707   1.531   3.374   8.219
  894TP3      O13708   1.522   2.132   8.392
  894TP3     H113709   1.458   2.193   8.353
  894TP3     H213710   1.603   2.141   8.337
  895TP3      O13711   0.828   1.923   8.127
  895TP3     H113712   0.810   1.827   8.119
  895TP3     H213713   0.742   1.955   8.162
  896TP3      O13714   1.336   3.461   7.906
  896TP3     H113715   1.372   3.388   7.853
  896TP3     H213716   1.384   3.537   7.866
  897TP3      O13717   1.462   3.251   7.752
  897TP3     H113718   1.428   3.183   7.693
  897TP3     H213719   1.458   3.204   7.837
  898TP3      O13720   1.611   3.115   8.604
  898TP3     H113721   1.629   3.045   8.537
  898TP3     H213722   1.636   3.196   8.554
  899TP3      O13723   1.065   2.800   7.575
  899TP3     H113724   1.001   2.862   7.540
  899TP3     H213725   1.142   2.806   7.516
  900TP3      O13726   1.804   2.749   8.404
  900TP3     H113727   1.738   2.820   8.408
  900TP3     H213728   1.854   2.776   8.325
  901TP3      O13729   1.413   2.820   7.672
  901TP3     H113730   1.341   2.846   7.734
  901TP3     H213731   1.466   2.761   7.728
  902TP3      O13732   1.405   2.639   8.588
  902TP3     H113733   1.401   2.724   8.634
  902TP3     H213734   1.344   2.661   8.515
  903TP3      O13735   0.575   2.886   7.867
  903TP3     H113736   0.541   2.849   7.782
  903TP3     H213737   0.635   2.816   7.901
  904TP3      O13738   0.698   3.223   8.135
  904TP3     H113739   0.702   3.178   8.049
  904TP3     H213740   0.781   3.190   8.176
  905TP3      O13741   0.603   2.762   8.234
  905TP3     H113742   0.654   2.768   8.151
  905TP3     H213743   0.645   2.830   8.291
  906TP3      O13744   1.248   3.323   8.303
  906TP3     H113745   1.221   3.387   8.370
  906TP3     H213746   1.224   3.237   8.344
  907TP3      O13747   0.702   3.206   8.700
  907TP3     H113748   0.652   3.272   8.752
  907TP3     H213749   0.636   3.183   8.629
  908TP3      O13750   1.302   2.740   7.442
  908TP3     H113751   1.352   2.766   7.523
  908TP3     H213752   1.347   2.790   7.370
  909TP3      O13753   0.396   2.821   8.617
  909TP3     H113754   0.402   2.894   8.682
  909TP3     H213755   0.301   2.827   8.596
  910TP3      O13756   1.071   3.414   7.783
  910TP3     H113757   1.110   3.444   7.866
  910TP3     H213758   1.016   3.489   7.758
  911TP3      O13759   0.525   3.407   8.776
  911TP3     H113760   0.516   3.396   8.680
  911TP3     H213761   0.433   3.392   8.806
  912TP3      O13762   1.667   1.919   7.431
  912TP3     H113763   1.570   1.927   7.448
  912TP3     H213764   1.683   2.000   7.381
  913TP3      O13765   0.467   2.792   7.629
  913TP3     H113766   0.438   2.865   7.573
  913TP3     H213767   0.402   2.723   7.612
  914TP3      O13768   0.100   3.035   8.509
  914TP3     H113769   0.056   3.027   8.424
  914TP3     H213770   0.086   2.944   8.540
  915TP3      O13771   0.071   3.323   8.172
  915TP3     H113772   0.153   3.280   8.199
  915TP3     H213773   0.050   3.374   8.250
  916TP3      O13774   1.876   3.378   8.769
  916TP3     H113775   1.862   3.282   8.761
  916TP3     H213776   1.788   3.403   8.808
  917TP3      O13777   0.971   3.330   8.652
  917TP3     H113778   0.974   3.414   8.703
  917TP3     H213779   0.882   3.293   8.672
  918TP3      O13780   1.011   3.702   7.620
  918TP3     H113781   1.016   3.705   7.522
  918TP3     H213782   1.023   3.795   7.647
  919TP3      O13783   0.380   3.594   7.812
  919TP3     H113784   0.399   3.550   7.898
  919TP3     H213785   0.298   3.550   7.787
  920TP3      O13786   1.289   3.626   7.611
  920TP3     H113787   1.192   3.626   7.621
  920TP3     H213788   1.313   3.544   7.655
  921TP3      O13789   1.590   2.523   8.808
  921TP3     H113790   1.539   2.567   8.737
  921TP3     H213791   1.586   2.431   8.779
  922TP3      O13792   0.311   3.166   8.617
  922TP3     H113793   0.317   3.131   8.708
  922TP3     H213794   0.223   3.131   8.589
  923TP3      O13795   0.580   2.015   8.204
  923TP3     H113796   0.490   1.998   8.168
  923TP3     H213797   0.560   2.095   8.256
  924TP3      O13798   1.042   1.975   8.536
  924TP3     H113799   1.079   1.934   8.617
  924TP3     H213800   0.944   1.969   8.552
  925TP3      O13801   1.364   2.367   8.626
  925TP3     H113802   1.308   2.342   8.704
  925TP3     H213803   1.348   2.461   8.610
  926TP3      O13804   1.448   2.832   7.229
  926TP3     H113805   1.432   2.832   7.133
  926TP3     H213806   1.530   2.883   7.231
  927TP3      O13807   0.584   2.514   8.338
  927TP3     H113808   0.509   2.515   8.399
  927TP3     H213809   0.578   2.603   8.296
  928TP3      O13810   0.580   2.514   7.822
  928TP3     H113811   0.484   2.497   7.804
  928TP3     H213812   0.617   2.493   7.733
  929TP3      O13813   1.130   2.567   7.684
  929TP3     H113814   1.097   2.655   7.656
  929TP3     H213815   1.205   2.556   7.625
  930TP3      O13816   1.035   2.595   8.835
  930TP3     H113817   0.988   2.514   8.864
  930TP3     H213818   1.119   2.587   8.883
  931TP3      O13819   1.238   2.524   7.980
  931TP3     H113820   1.207   2.580   7.907
  931TP3     H213821   1.244   2.439   7.934
  932TP3      O13822   0.338   2.535   8.496
  932TP3     H113823   0.356   2.572   8.583
  932TP3     H213824   0.305   2.447   8.518
  933TP3      O13825   0.034   2.288   7.882
  933TP3     H113826   0.081   2.262   7.965
  933TP3     H213827   0.071   2.230   7.813
  934TP3      O13828   0.139   2.333   7.436
  934TP3     H113829   0.187   2.374   7.362
  934TP3     H213830   0.064   2.393   7.443
  935TP3      O13831   1.155   2.676   8.428
  935TP3     H113832   1.196   2.605   8.374
  935TP3     H213833   1.104   2.626   8.495
  936TP3      O13834   0.835   2.283   7.920
  936TP3     H113835   0.741   2.280   7.947
  936TP3     H213836   0.882   2.253   7.999
  937TP3      O13837   0.313   2.430   7.809
  937TP3     H113838   0.227   2.451   7.768
  937TP3     H213839   0.335   2.346   7.766
  938TP3      O13840   0.672   2.449   7.573
  938TP3     H113841   0.769   2.446   7.581
  938TP3     H213842   0.651   2.505   7.497
  939TP3      O13843   1.273   2.210   8.237
  939TP3     H113844   1.209   2.204   8.311
  939TP3     H213845   1.224   2.171   8.163
  940TP3      O13846   0.559   2.553   7.322
  940TP3     H113847   0.491   2.532   7.256
  940TP3     H213848   0.632   2.582   7.269
  941TP3      O13849   1.592   3.765   8.882
  941TP3     H113850   1.620   3.797   8.794
  941TP3     H213851   1.668   3.795   8.935
  942TP3      O13852   0.380   3.005   8.827
  942TP3     H113853   0.443   3.033   8.896
  942TP3     H213854   0.297   3.013   8.880
  943TP3      O13855   0.962   2.553   8.104
  943TP3     H113856   1.026   2.502   8.053
  943TP3     H213857   0.948   2.498   8.182
  944TP3      O13858   0.467   2.167   7.744
  944TP3     H113859   0.434   2.076   7.753
  944TP3     H213860   0.549   2.154   7.694
  945TP3      O13861   0.827   2.383   8.352
  945TP3     H113862   0.747   2.439   8.355
  945TP3     H213863   0.886   2.424   8.418
  946TP3      O13864   1.611   2.934   8.399
  946TP3     H113865   1.663   2.982   8.332
  946TP3     H213866   1.524   2.930   8.355
  947TP3      O13867   1.036   3.040   8.643
  947TP3     H113868   1.000   2.992   8.718
  947TP3     H213869   1.004   3.130   8.658
  948TP3      O13870   1.348   2.470   7.494
  948TP3     H113871   1.431   2.468   7.545
  948TP3     H213872   1.347   2.558   7.452
  949TP3      O13873   0.402   2.953   8.098
  949TP3     H113874   0.462   2.941   8.022
  949TP3     H213875   0.407   2.867   8.144
  950TP3      O13876   0.110   2.778   8.611
  950TP3     H113877   0.133   2.740   8.698
  950TP3     H213878   0.038   2.721   8.581
  951TP3      O13879   0.797   2.745   8.838
  951TP3     H113880   0.761   2.706   8.757
  951TP3     H213881   0.888   2.709   8.836
  952TP3      O13882   1.271   3.279   8.642
  952TP3     H113883   1.179   3.295   8.615
  952TP3     H213884   1.264   3.310   8.734
  953TP3      O13885   1.832   3.080   8.754
  953TP3     H113886   1.742   3.104   8.720
  953TP3     H213887   1.884   3.075   8.670
  954TP3      O13888   1.671   3.372   7.518
  954TP3     H113889   1.623   3.296   7.553
  954TP3     H213890   1.679   3.355   7.424
  955TP3      O13891   1.385   2.861   8.227
  955TP3     H113892   1.291   2.841   8.212
  955TP3     H213893   1.428   2.787   8.179
  956TP3      O13894   0.630   3.297   7.843
  956TP3     H113895   0.685   3.373   7.819
  956TP3     H213896   0.546   3.319   7.802
  957TP3      O13897   0.212   2.765   7.310
  957TP3     H113898   0.262   2.845   7.333
  957TP3     H213899   0.123   2.800   7.299
  958TP3      O13900   0.777   3.061   7.798
  958TP3     H113901   0.738   3.151   7.801
  958TP3     H213902   0.705   3.007   7.836
  959TP3      O13903   0.821   3.479   8.435
  959TP3     H113904   0.867   3.558   8.402
  959TP3     H213905   0.886   3.443   8.497
  960TP3      O13906   0.642   3.561   7.734
  960TP3     H113907   0.548   3.574   7.757
  960TP3     H213908   0.682   3.642   7.771
  961TP3      O13909   1.166   3.074   8.390
  961TP3     H113910   1.141   3.056   8.483
  961TP3     H213911   1.232   3.005   8.372
  962TP3      O13912   1.406   3.182   7.310
  962TP3     H113913   1.430   3.127   7.386
  962TP3     H213914   1.311   3.168   7.301
  963TP3      O13915   1.459   3.536   8.639
  963TP3     H113916   1.386   3.488   8.596
  963TP3     H213917   1.474   3.605   8.570
  964TP3      O13918   1.864   3.630   7.332
  964TP3     H113919   1.922   3.698   7.296
  964TP3     H213920   1.783   3.681   7.353
  965TP3      O13921   0.259   2.260   8.570
  965TP3     H113922   0.173   2.303   8.583
  965TP3     H213923   0.249   2.180   8.624
  966TP3      O13924   1.482   3.047   7.532
  966TP3     H113925   1.463   2.966   7.583
  966TP3     H213926   1.578   3.051   7.542
  967TP3      O13927   0.229   3.434   8.415
  967TP3     H113928   0.254   3.340   8.416
  967TP3     H213929   0.252   3.458   8.506
  968TP3      O13930   0.694   3.236   7.396
  968TP3     H113931   0.722   3.205   7.482
  968TP3     H213932   0.699   3.334   7.408
  969TP3      O13933   0.348   2.978   7.426
  969TP3     H113934   0.285   3.009   7.495
  969TP3     H213935   0.412   3.051   7.425
  970TP3      O13936   1.135   2.239   8.484
  970TP3     H113937   1.209   2.247   8.544
  970TP3     H213938   1.100   2.150   8.505
  971TP3      O13939   1.215   2.191   7.583
  971TP3     H113940   1.228   2.254   7.511
  971TP3     H213941   1.264   2.235   7.654
  972TP3      O13942   0.977   3.406   7.462
  972TP3     H113943   0.894   3.454   7.475
  972TP3     H213944   1.029   3.467   7.410
  973TP3      O13945   0.929   2.372   7.660
  973TP3     H113946   1.006   2.431   7.673
  973TP3     H213947   0.898   2.355   7.751
  974TP3      O13948   0.995   2.476   8.587
  974TP3     H113949   0.999   2.526   8.671
  974TP3     H213950   1.059   2.404   8.595
  975TP3      O13951   1.015   2.072   7.746
  975TP3     H113952   0.982   2.132   7.815
  975TP3     H213953   1.087   2.128   7.709
  976TP3      O13954   0.720   3.522   7.469
  976TP3     H113955   0.734   3.602   7.417
  976TP3     H213956   0.689   3.553   7.556
  977TP3      O13957   1.604   2.263   8.673
  977TP3     H113958   1.511   2.292   8.655
  977TP3     H213959   1.633   2.246   8.582
  978TP3      O13960   1.468   2.636   8.065
  978TP3     H113961   1.386   2.587   8.046
  978TP3     H213962   1.518   2.572   8.122
  979TP3      O13963   1.574   3.569   8.235
  979TP3     H113964   1.568   3.635   8.164
  979TP3     H213965   1.670   3.570   8.253
  980TP3      O13966   0.321   1.980   8.122
  980TP3     H113967   0.316   1.977   8.023
  980TP3     H213968   0.282   1.893   8.143
  981TP3      O13969   0.218   3.365   7.728
  981TP3     H113970   0.132   3.407   7.725
  981TP3     H213971   0.265   3.412   7.659
  982TP3      O13972   0.151   3.631   8.859
  982TP3     H113973   0.199   3.608   8.942
  982TP3     H213974   0.097   3.552   8.848
  983TP3      O13975   0.610   3.521   9.021
  983TP3     H113976   0.689   3.474   9.051
  983TP3     H213977   0.606   3.494   8.926
  984TP3      O13978   1.247   3.369   8.901
  984TP3     H113979   1.219   3.279   8.927
  984TP3     H213980   1.331   3.380   8.951
  985TP3      O13981   0.143   3.033   8.938
  985TP3     H113982   0.150   2.934   8.940
  985TP3     H213983   0.055   3.046   8.899
  986TP3      O13984   0.799   3.009   8.889
  986TP3     H113985   0.765   3.044   8.804
  986TP3     H213986   0.802   2.911   8.878
  987TP3      O13987   1.366   2.994   8.641
  987TP3     H113988   1.448   3.048   8.639
  987TP3     H213989   1.300   3.065   8.642
  988TP3      O13990   0.214   2.728   8.900
  988TP3     H113991   0.268   2.648   8.895
  988TP3     H213992   0.202   2.736   8.997
  989TP3      O13993   0.606   2.626   8.632
  989TP3     H113994   0.546   2.699   8.657
  989TP3     H213995   0.653   2.664   8.555
  990TP3      O13996   1.122   2.888   8.988
  990TP3     H113997   1.212   2.875   8.953
  990TP3     H213998   1.103   2.805   9.034
  991TP3      O13999   1.716   2.899   7.168
  991TP3     H114000   1.714   2.855   7.080
  991TP3     H214001   1.731   2.991   7.145
  992TP3      O14002   0.662   2.367   8.732
  992TP3     H114003   0.666   2.296   8.664
  992TP3     H214004   0.644   2.448   8.681
  993TP3      O14005   0.692   2.202   8.496
  993TP3     H114006   0.742   2.250   8.425
  993TP3     H214007   0.601   2.198   8.459
  994TP3      O14008   0.842   2.759   8.521
  994TP3     H114009   0.920   2.741   8.466
  994TP3     H214010   0.805   2.840   8.481
  995TP3      O14011   1.282   2.523   9.007
  995TP3     H114012   1.306   2.428   9.007
  995TP3     H214013   1.369   2.566   9.015
  996TP3      O14014   1.423   2.811   8.841
  996TP3     H114015   1.393   2.877   8.775
  996TP3     H214016   1.518   2.806   8.817
  997TP3      O14017   0.502   2.489   8.934
  997TP3     H114018   0.424   2.431   8.918
  997TP3     H214019   0.561   2.457   8.864
  998TP3      O14020   0.769   1.947   8.532
  998TP3     H114021   0.748   2.043   8.523
  998TP3     H214022   0.697   1.907   8.480
  999TP3      O14023   0.898   2.382   8.904
  999TP3     H114024   0.863   2.357   8.992
  999TP3     H214025   0.823   2.359   8.846
 1000TP3      O14026   1.169   2.297   8.810
 1000TP3     H114027   1.074   2.303   8.823
 1000TP3     H214028   1.196   2.233   8.879
 1001TP3      O14029   1.314   2.155   8.992
 1001TP3     H114030   1.324   2.058   8.999
 1001TP3     H214031   1.302   2.186   9.085
 1002TP3      O14032   0.315   2.283   8.908
 1002TP3     H114033   0.327   2.203   8.853
 1002TP3     H214034   0.293   2.245   8.996
 1003TP3      O14035   0.794   1.891   8.802
 1003TP3     H114036   0.861   1.819   8.801
 1003TP3     H214037   0.779   1.900   8.706
 1004TP3      O14038   0.824   2.044   9.020
 1004TP3     H114039   0.809   1.994   8.937
 1004TP3     H214040   0.771   2.125   9.005
 1005TP3      O14041   5.578   3.729   7.769
 1005TP3     H114042   5.495   3.698   7.727
 1005TP3     H214043   5.581   3.667   7.845
 1006TP3      O14044   0.089   3.553   7.966
 1006TP3     H114045   0.062   3.461   7.986
 1006TP3     H214046   0.126   3.580   8.052
 1007TP3      O14047   1.847   3.631   8.254
 1007TP3     H114048   1.852   3.642   8.350
 1007TP3     H214049   1.917   3.690   8.225
 1008TP3      O14050   1.801   3.588   8.550
 1008TP3     H114051   1.755   3.511   8.509
 1008TP3     H214052   1.843   3.543   8.626
 1009TP3      O14053   1.648   3.157   9.023
 1009TP3     H114054   1.557   3.160   9.060
 1009TP3     H214055   1.685   3.242   9.056
 1010TP3      O14056   1.780   2.995   7.557
 1010TP3     H114057   1.868   3.031   7.576
 1010TP3     H214058   1.778   2.922   7.622
 1011TP3      O14059   1.816   2.798   7.750
 1011TP3     H114060   1.735   2.756   7.788
 1011TP3     H214061   1.872   2.813   7.829
 1012TP3      O14062   1.788   3.068   8.249
 1012TP3     H114063   1.866   3.027   8.208
 1012TP3     H214064   1.805   3.163   8.232
 1013TP3      O14065   1.646   3.361   8.475
 1013TP3     H114066   1.577   3.397   8.533
 1013TP3     H214067   1.593   3.324   8.401
 1014TP3      O14068   1.597   2.648   7.810
 1014TP3     H114069   1.580   2.553   7.803
 1014TP3     H214070   1.569   2.665   7.903
 1015TP3      O14071   0.094   2.850   8.221
 1015TP3     H114072   0.107   2.854   8.124
 1015TP3     H214073   0.186   2.837   8.252
 1016TP3      O14074   1.686   2.847   8.785
 1016TP3     H114075   1.746   2.769   8.790
 1016TP3     H214076   1.748   2.923   8.778
 1017TP3      O14077   1.832   2.631   8.841
 1017TP3     H114078   1.743   2.592   8.828
 1017TP3     H214079   1.888   2.551   8.838
 1018TP3      O14080   1.562   2.404   7.654
 1018TP3     H114081   1.590   2.311   7.668
 1018TP3     H214082   1.643   2.444   7.622
 1019TP3      O14083   1.627   2.468   8.200
 1019TP3     H114084   1.724   2.484   8.198
 1019TP3     H214085   1.613   2.470   8.296
 1020TP3      O14086   1.633   2.533   8.471
 1020TP3     H114087   1.545   2.560   8.505
 1020TP3     H214088   1.678   2.619   8.453
 1021TP3      O14089   0.079   2.387   8.825
 1021TP3     H114090   0.167   2.360   8.856
 1021TP3     H214091   0.022   2.315   8.855
 1022TP3      O14092   1.868   1.947   9.009
 1022TP3     H114093   1.900   1.876   8.950
 1022TP3     H214094   1.868   2.024   8.949
 1023TP3      O14095   1.632   2.134   7.657
 1023TP3     H114096   1.657   2.096   7.744
 1023TP3     H214097   1.572   2.065   7.620
 1024TP3      O14098   0.174   2.217   8.112
 1024TP3     H114099   0.225   2.136   8.134
 1024TP3     H214100   0.229   2.283   8.155
 1025TP3      O14101   0.058   2.524   8.242
 1025TP3     H114102   0.100   2.506   8.155
 1025TP3     H214103   0.072   2.620   8.246
 1026TP3      O14104   1.809   2.150   8.844
 1026TP3     H114105   1.716   2.180   8.837
 1026TP3     H214106   1.810   2.094   8.764
 1027TP3      O14107   1.817   2.141   7.316
 1027TP3     H114108   1.844   2.072   7.254
 1027TP3     H214109   1.886   2.205   7.314
 1028TP3      O14110   0.076   2.156   7.617
 1028TP3     H114111  -0.021   2.154   7.605
 1028TP3     H214112   0.104   2.202   7.535
 1029TP3      O14113   1.519   3.636   7.820
 1029TP3     H114114   1.587   3.613   7.754
 1029TP3     H214115   1.567   3.688   7.886
 1030TP3      O14116   0.057   2.010   8.430
 1030TP3     H114117   0.008   2.006   8.514
 1030TP3     H214118   0.002   2.075   8.385
 1031TP3      O14119   0.261   3.339   8.871
 1031TP3     H114120   0.176   3.343   8.827
 1031TP3     H214121   0.238   3.312   8.960
 1032TP3      O14122   0.550   3.432   8.500
 1032TP3     H114123   0.524   3.521   8.473
 1032TP3     H214124   0.643   3.435   8.472
 1033TP3      O14125   0.984   3.571   8.788
 1033TP3     H114126   0.993   3.536   8.879
 1033TP3     H214127   1.076   3.601   8.771
 1034TP3      O14128   1.212   3.699   8.721
 1034TP3     H114129   1.288   3.644   8.697
 1034TP3     H214130   1.247   3.746   8.800
 1035TP3      O14131   1.701   1.954   8.655
 1035TP3     H114132   1.640   1.998   8.594
 1035TP3     H214133   1.736   1.888   8.591
 1036TP3      O14134   0.327   3.725   8.499
 1036TP3     H114135   0.280   3.788   8.441
 1036TP3     H214136   0.309   3.733   8.594
 1037TP3      O14137   0.563   3.706   8.395
 1037TP3     H114138   0.479   3.721   8.443
 1037TP3     H214139   0.549   3.768   8.321
 1038TP3      O14140   1.012   3.699   8.322
 1038TP3     H114141   0.967   3.755   8.258
 1038TP3     H214142   1.026   3.761   8.396
 1039TP3      O14143   1.235   3.572   8.434
 1039TP3     H114144   1.157   3.608   8.388
 1039TP3     H214145   1.293   3.650   8.423
 1040TP3      O14146   1.496   3.733   8.444
 1040TP3     H114147   1.500   3.829   8.422
 1040TP3     H214148   1.521   3.694   8.358
 1041TP3      O14149   0.246   3.617   8.190
 1041TP3     H114150   0.235   3.561   8.269
 1041TP3     H214151   0.323   3.575   8.147
 1042TP3      O14152   0.445   3.488   8.058
 1042TP3     H114153   0.434   3.395   8.084
 1042TP3     H214154   0.533   3.507   8.099
 1043TP3      O14155   0.710   3.536   8.147
 1043TP3     H114156   0.725   3.443   8.123
 1043TP3     H214157   0.718   3.531   8.243
 1044TP3      O14158   1.053   2.100   8.055
 1044TP3     H114159   0.986   2.039   8.089
 1044TP3     H214160   1.112   2.042   8.006
 1045TP3      O14161   1.571   1.893   8.056
 1045TP3     H114162   1.631   1.961   8.017
 1045TP3     H214163   1.483   1.936   8.047
 1046TP3      O14164   1.731   2.034   7.891
 1046TP3     H114165   1.796   1.971   7.854
 1046TP3     H214166   1.788   2.111   7.914
 1047TP3      O14167   0.298   1.962   7.847
 1047TP3     H114168   0.217   1.949   7.794
 1047TP3     H214169   0.337   1.873   7.833
 1048TP3      O14170   0.200   1.945   7.444
 1048TP3     H114171   0.205   1.991   7.359
 1048TP3     H214172   0.111   1.973   7.474
 1049TP3      O14173   0.731   1.953   7.824
 1049TP3     H114174   0.819   1.989   7.809
 1049TP3     H214175   0.734   1.933   7.917
 1050TP3      O14176   1.309   1.960   7.982
 1050TP3     H114177   1.303   1.970   7.887
 1050TP3     H214178   1.274   1.869   7.998
 1051TP3      O14179   1.431   1.961   7.545
 1051TP3     H114180   1.357   2.024   7.547
 1051TP3     H214181   1.390   1.878   7.576
 1052TP3      O14182   0.174   3.544   7.506
 1052TP3     H114183   0.097   3.537   7.448
 1052TP3     H214184   0.172   3.638   7.528
 1053TP3      O14185   0.850   2.158   7.501
 1053TP3     H114186   0.875   2.101   7.575
 1053TP3     H214187   0.865   2.244   7.545
 1054TP3      O14188   1.053   3.665   7.344
 1054TP3     H114189   1.147   3.685   7.329
 1054TP3     H214190   1.030   3.615   7.264
 1055TP3      O14191   1.712   3.613   7.625
 1055TP3     H114192   1.696   3.534   7.568
 1055TP3     H214193   1.700   3.687   7.561
 1056TP3      O14194   0.278   2.019   8.785
 1056TP3     H114195   0.233   1.939   8.819
 1056TP3     H214196   0.366   2.009   8.827
 1057TP3      O14197   0.476   1.958   8.956
 1057TP3     H114198   0.566   1.923   8.936
 1057TP3     H214199   0.438   1.878   8.997
 1058TP3      O14200   0.354   3.645   7.215
 1058TP3     H114201   0.311   3.653   7.302
 1058TP3     H214202   0.426   3.581   7.230
 1059TP3      O14203   1.321   1.882   8.975
 1059TP3     H114204   1.331   1.835   9.060
 1059TP3     H214205   1.412   1.879   8.939
 1060TP3      O14206   1.640   3.492   8.834
 1060TP3     H114207   1.563   3.479   8.775
 1060TP3     H214208   1.629   3.587   8.852
 1061TP3      O14209   3.089   2.881   7.828
 1061TP3     H114210   3.083   2.979   7.828
 1061TP3     H214211   3.016   2.859   7.767
 1062TP3      O14212   2.962   2.797   8.180
 1062TP3     H114213   2.975   2.737   8.255
 1062TP3     H214214   2.933   2.743   8.106
 1063TP3      O14215   2.212   2.769   8.325
 1063TP3     H114216   2.211   2.705   8.398
 1063TP3     H214217   2.277   2.833   8.359
 1064TP3      O14218   3.335   3.099   8.010
 1064TP3     H114219   3.297   3.027   8.060
 1064TP3     H214220   3.342   3.168   8.078
 1065TP3      O14221   2.298   3.218   8.181
 1065TP3     H114222   2.267   3.129   8.152
 1065TP3     H214223   2.392   3.198   8.183
 1066TP3      O14224   1.967   2.563   7.718
 1066TP3     H114225   1.926   2.651   7.732
 1066TP3     H214226   1.894   2.510   7.689
 1067TP3      O14227   2.034   2.794   7.949
 1067TP3     H114228   2.066   2.711   7.990
 1067TP3     H214229   2.102   2.813   7.883
 1068TP3      O14230   3.045   3.611   8.035
 1068TP3     H114231   3.114   3.553   7.994
 1068TP3     H214232   3.051   3.580   8.125
 1069TP3      O14233   2.811   3.048   8.233
 1069TP3     H114234   2.836   2.982   8.167
 1069TP3     H214235   2.895   3.055   8.282
 1070TP3      O14236   3.665   2.211   8.294
 1070TP3     H114237   3.684   2.266   8.373
 1070TP3     H214238   3.728   2.248   8.231
 1071TP3      O14239   3.120   2.488   8.263
 1071TP3     H114240   3.145   2.392   8.265
 1071TP3     H214241   3.120   2.500   8.166
 1072TP3      O14242   2.439   2.301   7.979
 1072TP3     H114243   2.446   2.377   7.917
 1072TP3     H214244   2.400   2.237   7.915
 1073TP3      O14245   3.207   2.309   7.822
 1073TP3     H114246   3.269   2.270   7.887
 1073TP3     H214247   3.267   2.364   7.768
 1074TP3      O14248   2.100   2.543   8.055
 1074TP3     H114249   2.158   2.483   8.104
 1074TP3     H214250   2.112   2.510   7.964
 1075TP3      O14251   2.605   2.687   7.997
 1075TP3     H114252   2.690   2.641   8.012
 1075TP3     H214253   2.566   2.634   7.925
 1076TP3      O14254   3.712   2.350   8.527
 1076TP3     H114255   3.650   2.425   8.508
 1076TP3     H214256   3.711   2.348   8.624
 1077TP3      O14257   2.335   2.193   8.382
 1077TP3     H114258   2.297   2.245   8.308
 1077TP3     H214259   2.267   2.209   8.452
 1078TP3      O14260   3.051   3.135   7.737
 1078TP3     H114261   3.025   3.112   7.646
 1078TP3     H214262   3.025   3.230   7.742
 1079TP3      O14263   2.573   2.949   8.399
 1079TP3     H114264   2.509   3.017   8.430
 1079TP3     H214265   2.647   3.005   8.372
 1080TP3      O14266   3.398   2.243   8.015
 1080TP3     H114267   3.364   2.168   8.065
 1080TP3     H214268   3.460   2.283   8.080
 1081TP3      O14269   2.290   2.371   8.186
 1081TP3     H114270   2.340   2.449   8.218
 1081TP3     H214271   2.335   2.339   8.105
 1082TP3      O14272   2.426   3.157   8.486
 1082TP3     H114273   2.416   3.249   8.454
 1082TP3     H214274   2.338   3.145   8.530
 1083TP3      O14275   2.037   3.115   7.557
 1083TP3     H114276   1.999   3.152   7.477
 1083TP3     H214277   2.036   3.191   7.619
 1084TP3      O14278   3.388   3.283   8.243
 1084TP3     H114279   3.293   3.296   8.256
 1084TP3     H214280   3.416   3.374   8.221
 1085TP3      O14281   3.425   2.115   8.388
 1085TP3     H114282   3.349   2.167   8.360
 1085TP3     H214283   3.496   2.149   8.330
 1086TP3      O14284   2.710   1.926   8.123
 1086TP3     H114285   2.701   1.829   8.119
 1086TP3     H214286   2.624   1.950   8.162
 1087TP3      O14287   3.216   3.464   7.903
 1087TP3     H114288   3.255   3.389   7.852
 1087TP3     H214289   3.272   3.537   7.865
 1088TP3      O14290   3.345   3.252   7.754
 1088TP3     H114291   3.312   3.186   7.690
 1088TP3     H214292   3.342   3.201   7.837
 1089TP3      O14293   3.499   3.114   8.605
 1089TP3     H114294   3.515   3.045   8.537
 1089TP3     H214295   3.520   3.196   8.555
 1090TP3      O14296   2.957   2.801   7.581
 1090TP3     H114297   2.886   2.862   7.551
 1090TP3     H214298   3.020   2.812   7.509
 1091TP3      O14299   2.968   2.664   7.288
 1091TP3     H114300   3.038   2.659   7.355
 1091TP3     H214301   2.977   2.582   7.240
 1092TP3      O14302   3.690   2.747   8.404
 1092TP3     H114303   3.627   2.821   8.407
 1092TP3     H214304   3.743   2.773   8.326
 1093TP3      O14305   3.299   2.812   7.670
 1093TP3     H114306   3.228   2.845   7.731
 1093TP3     H214307   3.351   2.758   7.732
 1094TP3      O14308   3.290   2.639   8.588
 1094TP3     H114309   3.287   2.724   8.635
 1094TP3     H214310   3.230   2.663   8.515
 1095TP3      O14311   2.452   2.885   7.867
 1095TP3     H114312   2.426   2.852   7.777
 1095TP3     H214313   2.519   2.820   7.896
 1096TP3      O14314   2.594   3.227   8.131
 1096TP3     H114315   2.588   3.178   8.047
 1096TP3     H214316   2.667   3.182   8.176
 1097TP3      O14317   2.493   2.755   8.237
 1097TP3     H114318   2.536   2.771   8.150
 1097TP3     H214319   2.529   2.829   8.291
 1098TP3      O14320   3.123   3.327   8.301
 1098TP3     H114321   3.121   3.384   8.380
 1098TP3     H214322   3.111   3.237   8.341
 1099TP3      O14323   2.584   3.203   8.701
 1099TP3     H114324   2.540   3.275   8.751
 1099TP3     H214325   2.518   3.184   8.630
 1100TP3      O14326   3.192   2.736   7.433
 1100TP3     H114327   3.231   2.762   7.521
 1100TP3     H214328   3.221   2.807   7.375
 1101TP3      O14329   2.282   2.822   8.606
 1101TP3     H114330   2.291   2.887   8.678
 1101TP3     H214331   2.185   2.820   8.600
 1102TP3      O14332   2.952   3.414   7.793
 1102TP3     H114333   3.007   3.452   7.863
 1102TP3     H214334   2.905   3.489   7.757
 1103TP3      O14335   2.413   3.406   8.774
 1103TP3     H114336   2.402   3.401   8.677
 1103TP3     H214337   2.321   3.390   8.803
 1104TP3      O14338   2.360   2.786   7.612
 1104TP3     H114339   2.322   2.866   7.570
 1104TP3     H214340   2.287   2.724   7.608
 1105TP3      O14341   3.671   3.351   7.270
 1105TP3     H114342   3.685   3.448   7.277
 1105TP3     H214343   3.761   3.317   7.266
 1106TP3      O14344   1.962   3.032   8.523
 1106TP3     H114345   1.919   3.025   8.436
 1106TP3     H214346   1.975   2.936   8.542
 1107TP3      O14347   1.938   3.306   8.195
 1107TP3     H114348   2.034   3.294   8.188
 1107TP3     H214349   1.932   3.389   8.242
 1108TP3      O14350   3.769   3.374   8.769
 1108TP3     H114351   3.747   3.281   8.760
 1108TP3     H214352   3.680   3.405   8.802
 1109TP3      O14353   2.848   3.335   8.640
 1109TP3     H114354   2.865   3.408   8.705
 1109TP3     H214355   2.772   3.289   8.679
 1110TP3      O14356   2.906   3.705   7.625
 1110TP3     H114357   2.895   3.706   7.528
 1110TP3     H214358   2.904   3.800   7.648
 1111TP3      O14359   2.265   3.596   7.818
 1111TP3     H114360   2.284   3.552   7.904
 1111TP3     H214361   2.183   3.550   7.791
 1112TP3      O14362   3.173   3.628   7.611
 1112TP3     H114363   3.077   3.633   7.627
 1112TP3     H214364   3.195   3.543   7.651
 1113TP3      O14365   3.474   2.523   8.806
 1113TP3     H114366   3.424   2.566   8.735
 1113TP3     H214367   3.471   2.430   8.779
 1114TP3      O14368   2.195   3.163   8.612
 1114TP3     H114369   2.213   3.129   8.703
 1114TP3     H214370   2.106   3.127   8.591
 1115TP3      O14371   2.464   2.021   8.199
 1115TP3     H114372   2.375   1.997   8.165
 1115TP3     H214373   2.438   2.087   8.265
 1116TP3      O14374   2.929   1.979   8.537
 1116TP3     H114375   2.967   1.932   8.614
 1116TP3     H214376   2.832   1.967   8.549
 1117TP3      O14377   3.249   2.367   8.624
 1117TP3     H114378   3.195   2.343   8.703
 1117TP3     H214379   3.233   2.463   8.610
 1118TP3      O14380   2.461   2.517   8.341
 1118TP3     H114381   2.387   2.515   8.407
 1118TP3     H214382   2.454   2.613   8.315
 1119TP3      O14383   2.467   2.511   7.824
 1119TP3     H114384   2.372   2.498   7.803
 1119TP3     H214385   2.504   2.493   7.734
 1120TP3      O14386   3.021   2.572   7.692
 1120TP3     H114387   2.981   2.656   7.658
 1120TP3     H214388   3.087   2.553   7.624
 1121TP3      O14389   2.921   2.594   8.832
 1121TP3     H114390   2.873   2.513   8.864
 1121TP3     H214391   3.004   2.587   8.882
 1122TP3      O14392   3.116   2.524   7.984
 1122TP3     H114393   3.094   2.579   7.908
 1122TP3     H214394   3.131   2.440   7.937
 1123TP3      O14395   2.232   2.530   8.494
 1123TP3     H114396   2.247   2.573   8.579
 1123TP3     H214397   2.188   2.448   8.522
 1124TP3      O14398   1.902   2.239   7.901
 1124TP3     H114399   1.970   2.235   7.972
 1124TP3     H214400   1.947   2.203   7.823
 1125TP3      O14401   3.032   2.677   8.426
 1125TP3     H114402   3.081   2.608   8.376
 1125TP3     H214403   2.992   2.627   8.499
 1126TP3      O14404   2.724   2.295   7.930
 1126TP3     H114405   2.633   2.262   7.938
 1126TP3     H214406   2.774   2.244   7.995
 1127TP3      O14407   2.207   2.433   7.807
 1127TP3     H114408   2.118   2.448   7.769
 1127TP3     H214409   2.233   2.347   7.767
 1128TP3      O14410   2.554   2.453   7.577
 1128TP3     H114411   2.651   2.439   7.582
 1128TP3     H214412   2.549   2.505   7.495
 1129TP3      O14413   3.166   2.218   8.237
 1129TP3     H114414   3.104   2.200   8.310
 1129TP3     H214415   3.123   2.167   8.166
 1130TP3      O14416   3.483   3.788   8.884
 1130TP3     H114417   3.513   3.798   8.793
 1130TP3     H214418   3.564   3.794   8.935
 1131TP3      O14419   2.248   3.008   8.835
 1131TP3     H114420   2.318   3.034   8.898
 1131TP3     H214421   2.170   3.011   8.893
 1132TP3      O14422   2.831   2.533   8.102
 1132TP3     H114423   2.909   2.503   8.052
 1132TP3     H214424   2.853   2.501   8.191
 1133TP3      O14425   2.354   2.173   7.749
 1133TP3     H114426   2.318   2.083   7.755
 1133TP3     H214427   2.425   2.159   7.684
 1134TP3      O14428   2.706   2.392   8.353
 1134TP3     H114429   2.633   2.442   8.393
 1134TP3     H214430   2.777   2.416   8.417
 1135TP3      O14431   2.773   3.008   7.519
 1135TP3     H114432   2.694   2.962   7.485
 1135TP3     H214433   2.746   3.028   7.611
 1136TP3      O14434   3.497   2.934   8.399
 1136TP3     H114435   3.550   2.982   8.332
 1136TP3     H214436   3.410   2.930   8.355
 1137TP3      O14437   3.152   2.289   7.335
 1137TP3     H114438   3.058   2.304   7.337
 1137TP3     H214439   3.190   2.371   7.372
 1138TP3      O14440   2.921   3.038   8.644
 1138TP3     H114441   2.886   2.990   8.720
 1138TP3     H214442   2.893   3.128   8.662
 1139TP3      O14443   3.231   2.481   7.500
 1139TP3     H114444   3.317   2.467   7.544
 1139TP3     H214445   3.240   2.568   7.456
 1140TP3      O14446   2.285   2.952   8.099
 1140TP3     H114447   2.345   2.940   8.023
 1140TP3     H214448   2.290   2.868   8.147
 1141TP3      O14449   2.988   3.151   7.443
 1141TP3     H114450   2.950   3.239   7.458
 1141TP3     H214451   2.907   3.096   7.444
 1142TP3      O14452   1.982   2.785   8.626
 1142TP3     H114453   1.993   2.739   8.711
 1142TP3     H214454   1.919   2.728   8.578
 1143TP3      O14455   2.684   2.745   8.837
 1143TP3     H114456   2.647   2.705   8.757
 1143TP3     H214457   2.775   2.707   8.836
 1144TP3      O14458   3.153   3.282   8.638
 1144TP3     H114459   3.060   3.298   8.617
 1144TP3     H214460   3.149   3.308   8.732
 1145TP3      O14461   3.717   2.496   7.483
 1145TP3     H114462   3.662   2.462   7.411
 1145TP3     H214463   3.728   2.590   7.461
 1146TP3      O14464   3.718   3.079   8.755
 1146TP3     H114465   3.629   3.103   8.720
 1146TP3     H214466   3.771   3.074   8.672
 1147TP3      O14467   3.548   3.382   7.509
 1147TP3     H114468   3.510   3.303   7.550
 1147TP3     H214469   3.573   3.354   7.418
 1148TP3      O14470   3.271   2.860   8.228
 1148TP3     H114471   3.177   2.844   8.211
 1148TP3     H214472   3.313   2.785   8.180
 1149TP3      O14473   2.521   3.298   7.846
 1149TP3     H114474   2.568   3.378   7.817
 1149TP3     H214475   2.435   3.313   7.803
 1150TP3      O14476   2.658   3.060   7.783
 1150TP3     H114477   2.624   3.151   7.791
 1150TP3     H214478   2.593   3.010   7.834
 1151TP3      O14479   2.713   3.481   8.422
 1151TP3     H114480   2.744   3.573   8.427
 1151TP3     H214481   2.758   3.441   8.501
 1152TP3      O14482   2.538   3.555   7.762
 1152TP3     H114483   2.441   3.570   7.758
 1152TP3     H214484   2.570   3.647   7.762
 1153TP3      O14485   3.051   3.075   8.388
 1153TP3     H114486   3.027   3.056   8.482
 1153TP3     H214487   3.121   3.009   8.373
 1154TP3      O14488   3.370   3.513   8.584
 1154TP3     H114489   3.277   3.490   8.597
 1154TP3     H214490   3.360   3.607   8.559
 1155TP3      O14491   3.745   3.625   7.341
 1155TP3     H114492   3.803   3.686   7.291
 1155TP3     H214493   3.668   3.683   7.358
 1156TP3      O14494   2.151   2.262   8.584
 1156TP3     H114495   2.059   2.295   8.576
 1156TP3     H214496   2.133   2.171   8.616
 1157TP3      O14497   3.373   3.041   7.520
 1157TP3     H114498   3.345   2.966   7.575
 1157TP3     H214499   3.467   3.048   7.538
 1158TP3      O14500   2.113   3.436   8.418
 1158TP3     H114501   2.148   3.346   8.422
 1158TP3     H214502   2.135   3.469   8.506
 1159TP3      O14503   2.240   2.971   7.450
 1159TP3     H114504   2.165   3.010   7.499
 1159TP3     H214505   2.286   3.051   7.420
 1160TP3      O14506   3.018   2.240   8.480
 1160TP3     H114507   3.096   2.246   8.536
 1160TP3     H214508   2.984   2.151   8.504
 1161TP3      O14509   3.087   2.198   7.588
 1161TP3     H114510   3.119   2.236   7.505
 1161TP3     H214511   3.150   2.237   7.652
 1162TP3      O14512   2.854   3.409   7.457
 1162TP3     H114513   2.778   3.467   7.472
 1162TP3     H214514   2.914   3.467   7.406
 1163TP3      O14515   2.808   2.378   7.660
 1163TP3     H114516   2.893   2.426   7.670
 1163TP3     H214517   2.789   2.349   7.751
 1164TP3      O14518   2.876   2.473   8.587
 1164TP3     H114519   2.880   2.525   8.670
 1164TP3     H214520   2.942   2.404   8.597
 1165TP3      O14521   2.896   2.075   7.741
 1165TP3     H114522   2.876   2.132   7.816
 1165TP3     H214523   2.972   2.127   7.704
 1166TP3      O14524   2.460   2.180   7.442
 1166TP3     H114525   2.462   2.276   7.456
 1166TP3     H214526   2.556   2.160   7.449
 1167TP3      O14527   3.487   2.260   8.672
 1167TP3     H114528   3.396   2.294   8.656
 1167TP3     H214529   3.519   2.253   8.580
 1168TP3      O14530   3.354   2.637   8.066
 1168TP3     H114531   3.271   2.591   8.043
 1168TP3     H214532   3.405   2.571   8.118
 1169TP3      O14533   2.299   3.219   7.332
 1169TP3     H114534   2.350   3.295   7.366
 1169TP3     H214535   2.352   3.198   7.254
 1170TP3      O14536   3.458   3.567   8.230
 1170TP3     H114537   3.454   3.636   8.162
 1170TP3     H214538   3.553   3.569   8.253
 1171TP3      O14539   2.214   1.981   8.120
 1171TP3     H114540   2.193   1.978   8.024
 1171TP3     H214541   2.176   1.894   8.147
 1172TP3      O14542   2.101   3.373   7.736
 1172TP3     H114543   2.014   3.414   7.729
 1172TP3     H214544   2.144   3.411   7.659
 1173TP3      O14545   2.015   3.637   8.860
 1173TP3     H114546   2.081   3.621   8.930
 1173TP3     H214547   1.981   3.547   8.844
 1174TP3      O14548   2.498   3.521   9.019
 1174TP3     H114549   2.577   3.475   9.050
 1174TP3     H214550   2.493   3.494   8.925
 1175TP3      O14551   2.918   3.478   7.174
 1175TP3     H114552   2.834   3.431   7.183
 1175TP3     H214553   2.978   3.413   7.135
 1176TP3      O14554   3.104   3.323   8.900
 1176TP3     H114555   3.101   3.239   8.949
 1176TP3     H214556   3.187   3.367   8.928
 1177TP3      O14557   2.006   3.007   8.961
 1177TP3     H114558   2.026   2.917   8.930
 1177TP3     H214559   1.941   3.036   8.894
 1178TP3      O14560   2.685   3.011   8.889
 1178TP3     H114561   2.650   3.045   8.804
 1178TP3     H214562   2.689   2.913   8.878
 1179TP3      O14563   3.253   2.998   8.642
 1179TP3     H114564   3.335   3.052   8.638
 1179TP3     H214565   3.187   3.069   8.641
 1180TP3      O14566   2.111   2.734   8.901
 1180TP3     H114567   2.153   2.648   8.895
 1180TP3     H214568   2.091   2.740   8.996
 1181TP3      O14569   2.576   2.845   7.401
 1181TP3     H114570   2.521   2.799   7.467
 1181TP3     H214571   2.603   2.769   7.345
 1182TP3      O14572   2.492   2.624   8.626
 1182TP3     H114573   2.438   2.699   8.657
 1182TP3     H214574   2.543   2.669   8.555
 1183TP3      O14575   3.007   2.883   8.986
 1183TP3     H114576   3.099   2.871   8.959
 1183TP3     H214577   2.987   2.803   9.037
 1184TP3      O14578   2.540   2.368   8.732
 1184TP3     H114579   2.549   2.297   8.666
 1184TP3     H214580   2.531   2.450   8.679
 1185TP3      O14581   2.579   2.203   8.498
 1185TP3     H114582   2.628   2.246   8.425
 1185TP3     H214583   2.487   2.196   8.462
 1186TP3      O14584   2.722   2.752   8.513
 1186TP3     H114585   2.807   2.743   8.467
 1186TP3     H214586   2.692   2.840   8.485
 1187TP3      O14587   3.168   2.523   9.008
 1187TP3     H114588   3.190   2.429   9.008
 1187TP3     H214589   3.254   2.566   9.015
 1188TP3      O14590   3.307   2.810   8.841
 1188TP3     H114591   3.280   2.879   8.776
 1188TP3     H214592   3.402   2.806   8.818
 1189TP3      O14593   2.388   2.486   8.936
 1189TP3     H114594   2.308   2.433   8.916
 1189TP3     H214595   2.447   2.455   8.864
 1190TP3      O14596   2.657   1.944   8.532
 1190TP3     H114597   2.636   2.040   8.525
 1190TP3     H214598   2.584   1.907   8.480
 1191TP3      O14599   2.783   2.382   8.904
 1191TP3     H114600   2.747   2.356   8.991
 1191TP3     H214601   2.710   2.359   8.844
 1192TP3      O14602   3.055   2.297   8.810
 1192TP3     H114603   2.960   2.302   8.823
 1192TP3     H214604   3.081   2.233   8.881
 1193TP3      O14605   3.202   2.155   8.992
 1193TP3     H114606   3.210   2.058   8.999
 1193TP3     H214607   3.188   2.187   9.085
 1194TP3      O14608   2.190   2.288   8.908
 1194TP3     H114609   2.210   2.212   8.851
 1194TP3     H214610   2.176   2.246   8.995
 1195TP3      O14611   2.677   1.891   8.804
 1195TP3     H114612   2.745   1.820   8.804
 1195TP3     H214613   2.665   1.900   8.707
 1196TP3      O14614   2.711   2.044   9.019
 1196TP3     H114615   2.694   1.993   8.937
 1196TP3     H214616   2.657   2.125   9.005
 1197TP3      O14617   2.013   3.192   7.271
 1197TP3     H114618   2.105   3.206   7.304
 1197TP3     H214619   2.029   3.128   7.202
 1198TP3      O14620   1.893   3.734   7.777
 1198TP3     H114621   1.821   3.684   7.731
 1198TP3     H214622   1.920   3.670   7.846
 1199TP3      O14623   1.975   3.548   7.968
 1199TP3     H114624   1.938   3.462   7.991
 1199TP3     H214625   2.000   3.583   8.055
 1200TP3      O14626   3.731   3.631   8.254
 1200TP3     H114627   3.738   3.639   8.351
 1200TP3     H214628   3.802   3.690   8.227
 1201TP3      O14629   3.695   3.587   8.546
 1201TP3     H114630   3.637   3.516   8.512
 1201TP3     H214631   3.725   3.544   8.628
 1202TP3      O14632   3.536   3.154   9.029
 1202TP3     H114633   3.442   3.160   9.059
 1202TP3     H214634   3.569   3.242   9.055
 1203TP3      O14635   3.667   2.992   7.560
 1203TP3     H114636   3.752   3.032   7.581
 1203TP3     H214637   3.664   2.922   7.628
 1204TP3      O14638   3.696   2.803   7.749
 1204TP3     H114639   3.620   2.754   7.788
 1204TP3     H214640   3.757   2.812   7.825
 1205TP3      O14641   3.670   3.068   8.247
 1205TP3     H114642   3.751   3.028   8.209
 1205TP3     H214643   3.688   3.163   8.235
 1206TP3      O14644   3.539   3.356   8.471
 1206TP3     H114645   3.473   3.403   8.528
 1206TP3     H214646   3.478   3.325   8.401
 1207TP3      O14647   3.480   2.648   7.811
 1207TP3     H114648   3.468   2.552   7.804
 1207TP3     H214649   3.452   2.665   7.903
 1208TP3      O14650   1.983   2.859   8.217
 1208TP3     H114651   1.996   2.848   8.121
 1208TP3     H214652   2.073   2.837   8.250
 1209TP3      O14653   3.571   2.845   8.786
 1209TP3     H114654   3.632   2.768   8.790
 1209TP3     H214655   3.633   2.921   8.778
 1210TP3      O14656   3.718   2.630   8.841
 1210TP3     H114657   3.629   2.591   8.828
 1210TP3     H214658   3.774   2.550   8.839
 1211TP3      O14659   3.450   2.409   7.650
 1211TP3     H114660   3.473   2.313   7.661
 1211TP3     H214661   3.534   2.443   7.621
 1212TP3      O14662   3.513   2.462   8.200
 1212TP3     H114663   3.610   2.483   8.198
 1212TP3     H214664   3.497   2.475   8.295
 1213TP3      O14665   3.520   2.532   8.472
 1213TP3     H114666   3.432   2.560   8.505
 1213TP3     H214667   3.564   2.618   8.454
 1214TP3      O14668   1.948   2.384   8.832
 1214TP3     H114669   2.041   2.361   8.852
 1214TP3     H214670   1.900   2.302   8.855
 1215TP3      O14671   3.753   1.946   9.009
 1215TP3     H114672   3.786   1.876   8.951
 1215TP3     H214673   3.755   2.023   8.948
 1216TP3      O14674   3.521   2.135   7.654
 1216TP3     H114675   3.541   2.096   7.742
 1216TP3     H214676   3.454   2.071   7.618
 1217TP3      O14677   2.069   2.218   8.111
 1217TP3     H114678   2.104   2.131   8.141
 1217TP3     H214679   2.123   2.281   8.160
 1218TP3      O14680   1.893   2.519   8.217
 1218TP3     H114681   1.949   2.490   8.142
 1218TP3     H214682   1.944   2.596   8.246
 1219TP3      O14683   3.699   2.151   8.843
 1219TP3     H114684   3.606   2.182   8.842
 1219TP3     H214685   3.696   2.095   8.764
 1220TP3      O14686   1.925   2.157   7.631
 1220TP3     H114687   1.829   2.157   7.617
 1220TP3     H214688   1.961   2.185   7.548
 1221TP3      O14689   3.402   3.637   7.819
 1221TP3     H114690   3.472   3.608   7.758
 1221TP3     H214691   3.452   3.688   7.886
 1222TP3      O14692   1.953   2.052   8.484
 1222TP3     H114693   1.888   1.986   8.516
 1222TP3     H214694   1.901   2.076   8.405
 1223TP3      O14695   2.152   3.329   8.866
 1223TP3     H114696   2.066   3.352   8.827
 1223TP3     H214697   2.128   3.316   8.958
 1224TP3      O14698   2.437   3.432   8.500
 1224TP3     H114699   2.410   3.523   8.477
 1224TP3     H214700   2.531   3.436   8.473
 1225TP3      O14701   2.870   3.572   8.786
 1225TP3     H114702   2.877   3.534   8.876
 1225TP3     H214703   2.963   3.600   8.773
 1226TP3      O14704   3.084   3.725   8.701
 1226TP3     H114705   3.147   3.650   8.692
 1226TP3     H214706   3.120   3.750   8.788
 1227TP3      O14707   3.601   1.958   8.634
 1227TP3     H114708   3.519   1.989   8.592
 1227TP3     H214709   3.614   1.873   8.584
 1228TP3      O14710   2.183   3.751   8.495
 1228TP3     H114711   2.110   3.804   8.457
 1228TP3     H214712   2.154   3.739   8.586
 1229TP3      O14713   2.427   3.706   8.398
 1229TP3     H114714   2.340   3.726   8.442
 1229TP3     H214715   2.422   3.771   8.326
 1230TP3      O14716   2.888   3.694   8.319
 1230TP3     H114717   2.851   3.761   8.257
 1230TP3     H214718   2.910   3.755   8.394
 1231TP3      O14719   3.121   3.575   8.427
 1231TP3     H114720   3.043   3.619   8.396
 1231TP3     H214721   3.183   3.650   8.430
 1232TP3      O14722   3.378   3.738   8.439
 1232TP3     H114723   3.385   3.833   8.415
 1232TP3     H214724   3.406   3.694   8.356
 1233TP3      O14725   2.131   3.617   8.195
 1233TP3     H114726   2.119   3.567   8.278
 1233TP3     H214727   2.211   3.576   8.156
 1234TP3      O14728   2.336   3.488   8.060
 1234TP3     H114729   2.320   3.395   8.083
 1234TP3     H214730   2.422   3.506   8.101
 1235TP3      O14731   2.609   3.528   8.146
 1235TP3     H114732   2.592   3.436   8.116
 1235TP3     H214733   2.580   3.527   8.239
 1236TP3      O14734   2.927   2.102   8.053
 1236TP3     H114735   2.873   2.030   8.090
 1236TP3     H214736   2.999   2.051   8.008
 1237TP3      O14737   3.473   1.896   8.050
 1237TP3     H114738   3.520   1.969   8.003
 1237TP3     H214739   3.381   1.929   8.059
 1238TP3      O14740   3.624   2.035   7.879
 1238TP3     H114741   3.694   1.973   7.849
 1238TP3     H214742   3.676   2.114   7.906
 1239TP3      O14743   2.178   1.964   7.846
 1239TP3     H114744   2.097   1.948   7.795
 1239TP3     H214745   2.223   1.877   7.835
 1240TP3      O14746   2.615   1.963   7.827
 1240TP3     H114747   2.708   1.984   7.806
 1240TP3     H214748   2.622   1.928   7.916
 1241TP3      O14749   3.156   1.992   7.935
 1241TP3     H114750   3.202   1.964   7.856
 1241TP3     H214751   3.159   1.910   7.990
 1242TP3      O14752   3.322   1.960   7.571
 1242TP3     H114753   3.251   2.013   7.532
 1242TP3     H214754   3.278   1.872   7.579
 1243TP3      O14755   2.041   3.532   7.520
 1243TP3     H114756   1.978   3.532   7.445
 1243TP3     H214757   2.044   3.627   7.537
 1244TP3      O14758   2.731   2.157   7.506
 1244TP3     H114759   2.765   2.103   7.579
 1244TP3     H214760   2.751   2.245   7.543
 1245TP3      O14761   2.932   3.663   7.361
 1245TP3     H114762   3.020   3.690   7.333
 1245TP3     H214763   2.902   3.616   7.280
 1246TP3      O14764   3.594   3.619   7.617
 1246TP3     H114765   3.580   3.536   7.565
 1246TP3     H214766   3.593   3.687   7.547
 1247TP3      O14767   2.163   2.017   8.787
 1247TP3     H114768   2.118   1.935   8.815
 1247TP3     H214769   2.251   2.008   8.831
 1248TP3      O14770   2.361   1.958   8.957
 1248TP3     H114771   2.450   1.924   8.937
 1248TP3     H214772   2.323   1.878   9.000
 1249TP3      O14773   3.207   1.883   8.975
 1249TP3     H114774   3.217   1.835   9.060
 1249TP3     H214775   3.298   1.878   8.939
 1250TP3      O14776   3.541   3.494   8.820
 1250TP3     H114777   3.450   3.473   8.787
 1250TP3     H214778   3.516   3.581   8.855
 1251TP3      O14779   4.971   2.880   7.829
 1251TP3     H114780   4.968   2.978   7.827
 1251TP3     H214781   4.897   2.855   7.772
 1252TP3      O14782   4.856   2.798   8.180
 1252TP3     H114783   4.861   2.735   8.254
 1252TP3     H214784   4.815   2.746   8.108
 1253TP3      O14785   4.090   2.773   8.332
 1253TP3     H114786   4.097   2.702   8.399
 1253TP3     H214787   4.166   2.828   8.358
 1254TP3      O14788   5.219   3.106   8.009
 1254TP3     H114789   5.189   3.027   8.055
 1254TP3     H214790   5.238   3.165   8.083
 1255TP3      O14791   4.182   3.219   8.176
 1255TP3     H114792   4.153   3.128   8.151
 1255TP3     H214793   4.277   3.202   8.181
 1256TP3      O14794   3.846   2.569   7.729
 1256TP3     H114795   3.801   2.655   7.729
 1256TP3     H214796   3.788   2.515   7.675
 1257TP3      O14797   3.921   2.793   7.951
 1257TP3     H114798   3.952   2.710   7.992
 1257TP3     H214799   3.986   2.810   7.881
 1258TP3      O14800   4.935   3.618   8.030
 1258TP3     H114801   4.998   3.549   7.999
 1258TP3     H214802   4.909   3.577   8.114
 1259TP3      O14803   4.694   3.042   8.231
 1259TP3     H114804   4.725   2.980   8.164
 1259TP3     H214805   4.778   3.058   8.279
 1260TP3      O14806   5.004   2.487   8.263
 1260TP3     H114807   5.033   2.394   8.267
 1260TP3     H214808   5.003   2.500   8.166
 1261TP3      O14809   4.318   2.297   7.975
 1261TP3     H114810   4.335   2.379   7.924
 1261TP3     H214811   4.281   2.240   7.904
 1262TP3      O14812   5.095   2.305   7.823
 1262TP3     H114813   5.164   2.271   7.884
 1262TP3     H214814   5.149   2.367   7.770
 1263TP3      O14815   3.982   2.540   8.052
 1263TP3     H114816   4.048   2.488   8.101
 1263TP3     H214817   3.998   2.508   7.962
 1264TP3      O14818   4.496   2.694   7.994
 1264TP3     H114819   4.568   2.636   8.024
 1264TP3     H214820   4.450   2.633   7.933
 1265TP3      O14821   4.216   2.188   8.383
 1265TP3     H114822   4.187   2.246   8.308
 1265TP3     H214823   4.149   2.211   8.451
 1266TP3      O14824   4.939   3.134   7.740
 1266TP3     H114825   4.910   3.111   7.651
 1266TP3     H214826   4.911   3.228   7.747
 1267TP3      O14827   4.462   2.952   8.403
 1267TP3     H114828   4.395   3.017   8.431
 1267TP3     H214829   4.533   3.011   8.372
 1268TP3      O14830   5.284   2.235   8.009
 1268TP3     H114831   5.248   2.168   8.068
 1268TP3     H214832   5.342   2.284   8.069
 1269TP3      O14833   4.177   2.371   8.189
 1269TP3     H114834   4.236   2.443   8.220
 1269TP3     H214835   4.226   2.337   8.110
 1270TP3      O14836   4.312   3.155   8.490
 1270TP3     H114837   4.304   3.245   8.455
 1270TP3     H214838   4.223   3.144   8.532
 1271TP3      O14839   3.912   3.114   7.562
 1271TP3     H114840   3.880   3.154   7.480
 1271TP3     H214841   3.915   3.190   7.624
 1272TP3      O14842   5.269   3.280   8.241
 1272TP3     H114843   5.172   3.295   8.256
 1272TP3     H214844   5.301   3.370   8.223
 1273TP3      O14845   5.320   2.115   8.376
 1273TP3     H114846   5.236   2.163   8.365
 1273TP3     H214847   5.376   2.164   8.315
 1274TP3      O14848   4.600   1.923   8.127
 1274TP3     H114849   4.583   1.827   8.119
 1274TP3     H214850   4.513   1.955   8.161
 1275TP3      O14851   5.102   3.461   7.902
 1275TP3     H114852   5.146   3.387   7.855
 1275TP3     H214853   5.156   3.537   7.871
 1276TP3      O14854   5.215   3.251   7.744
 1276TP3     H114855   5.195   3.176   7.685
 1276TP3     H214856   5.228   3.204   7.829
 1277TP3      O14857   5.381   3.114   8.615
 1277TP3     H114858   5.405   3.049   8.546
 1277TP3     H214859   5.407   3.197   8.569
 1278TP3      O14860   4.835   2.805   7.581
 1278TP3     H114861   4.764   2.860   7.541
 1278TP3     H214862   4.905   2.802   7.512
 1279TP3      O14863   5.178   2.827   7.674
 1279TP3     H114864   5.104   2.848   7.736
 1279TP3     H214865   5.229   2.764   7.729
 1280TP3      O14866   5.171   2.643   8.587
 1280TP3     H114867   5.165   2.725   8.638
 1280TP3     H214868   5.111   2.666   8.514
 1281TP3      O14869   4.344   2.887   7.865
 1281TP3     H114870   4.312   2.850   7.780
 1281TP3     H214871   4.405   2.817   7.898
 1282TP3      O14872   4.473   3.222   8.132
 1282TP3     H114873   4.475   3.175   8.047
 1282TP3     H214874   4.553   3.188   8.176
 1283TP3      O14875   4.373   2.761   8.235
 1283TP3     H114876   4.423   2.768   8.151
 1283TP3     H214877   4.416   2.829   8.291
 1284TP3      O14878   5.014   3.324   8.304
 1284TP3     H114879   4.992   3.386   8.375
 1284TP3     H214880   4.993   3.237   8.345
 1285TP3      O14881   4.471   3.205   8.701
 1285TP3     H114882   4.423   3.275   8.752
 1285TP3     H214883   4.407   3.184   8.629
 1286TP3      O14884   5.062   2.753   7.442
 1286TP3     H114885   5.122   2.764   7.520
 1286TP3     H214886   5.116   2.784   7.368
 1287TP3      O14887   4.168   2.822   8.606
 1287TP3     H114888   4.177   2.885   8.680
 1287TP3     H214889   4.071   2.822   8.598
 1288TP3      O14890   4.839   3.417   7.779
 1288TP3     H114891   4.881   3.440   7.862
 1288TP3     H214892   4.782   3.494   7.763
 1289TP3      O14893   4.297   3.405   8.774
 1289TP3     H114894   4.287   3.401   8.677
 1289TP3     H214895   4.205   3.391   8.802
 1290TP3      O14896   5.444   1.932   7.451
 1290TP3     H114897   5.345   1.931   7.453
 1290TP3     H214898   5.457   1.983   7.370
 1291TP3      O14899   4.235   2.793   7.628
 1291TP3     H114900   4.205   2.866   7.572
 1291TP3     H214901   4.173   2.722   7.607
 1292TP3      O14902   3.847   3.033   8.522
 1292TP3     H114903   3.804   3.025   8.435
 1292TP3     H214904   3.861   2.938   8.542
 1293TP3      O14905   3.821   3.306   8.195
 1293TP3     H114906   3.918   3.296   8.194
 1293TP3     H214907   3.812   3.390   8.243
 1294TP3      O14908   4.743   3.332   8.652
 1294TP3     H114909   4.747   3.414   8.705
 1294TP3     H214910   4.655   3.295   8.673
 1295TP3      O14911   4.791   3.704   7.624
 1295TP3     H114912   4.774   3.712   7.531
 1295TP3     H214913   4.792   3.796   7.656
 1296TP3      O14914   4.152   3.595   7.816
 1296TP3     H114915   4.169   3.552   7.902
 1296TP3     H214916   4.067   3.554   7.793
 1297TP3      O14917   5.054   3.617   7.603
 1297TP3     H114918   4.962   3.631   7.631
 1297TP3     H214919   5.084   3.547   7.662
 1298TP3      O14920   5.341   2.532   8.807
 1298TP3     H114921   5.300   2.561   8.724
 1298TP3     H214922   5.374   2.443   8.783
 1299TP3      O14923   4.080   3.163   8.612
 1299TP3     H114924   4.098   3.129   8.702
 1299TP3     H214925   3.991   3.127   8.591
 1300TP3      O14926   4.347   2.017   8.200
 1300TP3     H114927   4.257   1.999   8.167
 1300TP3     H214928   4.329   2.095   8.255
 1301TP3      O14929   4.813   1.977   8.539
 1301TP3     H114930   4.850   1.934   8.618
 1301TP3     H214931   4.715   1.970   8.552
 1302TP3      O14932   5.141   2.366   8.621
 1302TP3     H114933   5.092   2.343   8.703
 1302TP3     H214934   5.124   2.461   8.610
 1303TP3      O14935   4.758   2.241   7.274
 1303TP3     H114936   4.741   2.230   7.369
 1303TP3     H214937   4.752   2.151   7.244
 1304TP3      O14938   4.355   2.513   8.338
 1304TP3     H114939   4.280   2.515   8.399
 1304TP3     H214940   4.351   2.601   8.295
 1305TP3      O14941   4.353   2.517   7.818
 1305TP3     H114942   4.258   2.498   7.806
 1305TP3     H214943   4.387   2.494   7.729
 1306TP3      O14944   4.902   2.569   7.688
 1306TP3     H114945   4.867   2.654   7.653
 1306TP3     H214946   4.974   2.550   7.625
 1307TP3      O14947   4.797   2.589   8.855
 1307TP3     H114948   4.777   2.494   8.849
 1307TP3     H214949   4.892   2.588   8.880
 1308TP3      O14950   5.008   2.524   7.980
 1308TP3     H114951   4.979   2.580   7.906
 1308TP3     H214952   5.017   2.438   7.933
 1309TP3      O14953   4.116   2.529   8.493
 1309TP3     H114954   4.133   2.571   8.579
 1309TP3     H214955   4.074   2.446   8.520
 1310TP3      O14956   3.787   2.237   7.901
 1310TP3     H114957   3.856   2.235   7.970
 1310TP3     H214958   3.832   2.208   7.821
 1311TP3      O14959   4.924   2.679   8.428
 1311TP3     H114960   4.967   2.610   8.372
 1311TP3     H214961   4.878   2.625   8.494
 1312TP3      O14962   4.607   2.282   7.919
 1312TP3     H114963   4.514   2.279   7.947
 1312TP3     H214964   4.654   2.253   7.999
 1313TP3      O14965   4.085   2.432   7.811
 1313TP3     H114966   3.999   2.448   7.767
 1313TP3     H214967   4.115   2.348   7.771
 1314TP3      O14968   4.447   2.448   7.573
 1314TP3     H114969   4.543   2.444   7.585
 1314TP3     H214970   4.436   2.506   7.496
 1315TP3      O14971   5.046   2.198   8.242
 1315TP3     H114972   4.978   2.204   8.312
 1315TP3     H214973   4.993   2.172   8.165
 1316TP3      O14974   5.369   3.766   8.893
 1316TP3     H114975   5.391   3.799   8.804
 1316TP3     H214976   5.444   3.801   8.943
 1317TP3      O14977   4.133   3.012   8.835
 1317TP3     H114978   4.204   3.036   8.898
 1317TP3     H214979   4.055   3.011   8.894
 1318TP3      O14980   4.734   2.552   8.104
 1318TP3     H114981   4.800   2.502   8.056
 1318TP3     H214982   4.719   2.498   8.183
 1319TP3      O14983   4.228   2.172   7.743
 1319TP3     H114984   4.200   2.081   7.760
 1319TP3     H214985   4.316   2.159   7.703
 1320TP3      O14986   4.598   2.383   8.349
 1320TP3     H114987   4.517   2.438   8.355
 1320TP3     H214988   4.656   2.422   8.417
 1321TP3      O14989   4.659   3.008   7.527
 1321TP3     H114990   4.578   2.965   7.497
 1321TP3     H214991   4.635   3.030   7.618
 1322TP3      O14992   5.380   2.937   8.399
 1322TP3     H114993   5.433   2.967   8.325
 1322TP3     H214994   5.293   2.926   8.356
 1323TP3      O14995   4.806   3.042   8.642
 1323TP3     H114996   4.773   2.994   8.718
 1323TP3     H214997   4.776   3.132   8.657
 1324TP3      O14998   5.108   2.478   7.507
 1324TP3     H114999   5.199   2.464   7.538
 1324TP3     H215000   5.118   2.550   7.443
 1325TP3      O15001   4.169   2.951   8.099
 1325TP3     H115002   4.234   2.939   8.027
 1325TP3     H215003   4.176   2.868   8.148
 1326TP3      O15004   3.867   2.786   8.626
 1326TP3     H115005   3.878   2.741   8.711
 1326TP3     H215006   3.805   2.729   8.577
 1327TP3      O15007   4.564   2.725   8.848
 1327TP3     H115008   4.529   2.710   8.758
 1327TP3     H215009   4.660   2.713   8.832
 1328TP3      O15010   5.036   3.276   8.642
 1328TP3     H115011   4.944   3.296   8.619
 1328TP3     H215012   5.038   3.309   8.734
 1329TP3      O15013   5.447   3.361   7.507
 1329TP3     H115014   5.383   3.300   7.546
 1329TP3     H215015   5.440   3.344   7.412
 1330TP3      O15016   5.154   2.854   8.236
 1330TP3     H115017   5.060   2.843   8.212
 1330TP3     H215018   5.195   2.786   8.179
 1331TP3      O15019   4.406   3.296   7.837
 1331TP3     H115020   4.454   3.377   7.817
 1331TP3     H215021   4.318   3.317   7.804
 1332TP3      O15022   4.548   3.063   7.785
 1332TP3     H115023   4.510   3.152   7.798
 1332TP3     H215024   4.482   3.008   7.831
 1333TP3      O15025   4.592   3.480   8.436
 1333TP3     H115026   4.644   3.555   8.402
 1333TP3     H215027   4.655   3.442   8.499
 1334TP3      O15028   4.415   3.557   7.738
 1334TP3     H115029   4.320   3.569   7.762
 1334TP3     H215030   4.451   3.641   7.771
 1335TP3      O15031   4.936   3.073   8.386
 1335TP3     H115032   4.914   3.063   8.481
 1335TP3     H215033   5.000   3.001   8.372
 1336TP3      O15034   5.154   3.206   7.353
 1336TP3     H115035   5.211   3.133   7.382
 1336TP3     H215036   5.098   3.158   7.291
 1337TP3      O15037   5.229   3.533   8.636
 1337TP3     H115038   5.152   3.484   8.598
 1337TP3     H215039   5.242   3.603   8.569
 1338TP3      O15040   4.035   2.262   8.581
 1338TP3     H115041   3.944   2.297   8.580
 1338TP3     H215042   4.022   2.175   8.624
 1339TP3      O15043   5.262   3.044   7.541
 1339TP3     H115044   5.231   2.961   7.583
 1339TP3     H215045   5.358   3.037   7.546
 1340TP3      O15046   3.994   3.436   8.420
 1340TP3     H115047   4.032   3.347   8.422
 1340TP3     H215048   4.019   3.469   8.507
 1341TP3      O15049   4.471   3.251   7.396
 1341TP3     H115050   4.499   3.198   7.472
 1341TP3     H215051   4.478   3.343   7.429
 1342TP3      O15052   4.119   2.980   7.432
 1342TP3     H115053   4.050   3.008   7.496
 1342TP3     H215054   4.183   3.053   7.437
 1343TP3      O15055   4.904   2.237   8.483
 1343TP3     H115056   4.978   2.247   8.544
 1343TP3     H215057   4.869   2.149   8.506
 1344TP3      O15058   4.990   2.190   7.585
 1344TP3     H115059   4.997   2.251   7.510
 1344TP3     H215060   5.044   2.235   7.651
 1345TP3      O15061   4.702   2.368   7.668
 1345TP3     H115062   4.777   2.431   7.673
 1345TP3     H215063   4.674   2.355   7.761
 1346TP3      O15064   4.761   2.471   8.588
 1346TP3     H115065   4.774   2.528   8.665
 1346TP3     H215066   4.831   2.404   8.591
 1347TP3      O15067   4.782   2.072   7.749
 1347TP3     H115068   4.751   2.136   7.815
 1347TP3     H215069   4.855   2.126   7.708
 1348TP3      O15070   4.481   3.517   7.467
 1348TP3     H115071   4.506   3.599   7.420
 1348TP3     H215072   4.456   3.549   7.556
 1349TP3      O15073   5.385   2.256   8.666
 1349TP3     H115074   5.291   2.284   8.656
 1349TP3     H215075   5.414   2.264   8.574
 1350TP3      O15076   5.235   2.643   8.070
 1350TP3     H115077   5.155   2.598   8.039
 1350TP3     H215078   5.277   2.571   8.121
 1351TP3      O15079   4.001   2.488   7.245
 1351TP3     H115080   4.023   2.580   7.260
 1351TP3     H215081   3.912   2.484   7.213
 1352TP3      O15082   5.346   3.569   8.242
 1352TP3     H115083   5.330   3.629   8.166
 1352TP3     H215084   5.442   3.568   8.249
 1353TP3      O15085   4.090   1.976   8.122
 1353TP3     H115086   4.077   1.976   8.025
 1353TP3     H215087   4.052   1.889   8.146
 1354TP3      O15088   3.987   3.367   7.731
 1354TP3     H115089   3.900   3.411   7.732
 1354TP3     H215090   4.029   3.412   7.657
 1355TP3      O15091   3.901   3.637   8.860
 1355TP3     H115092   3.967   3.621   8.931
 1355TP3     H215093   3.870   3.546   8.843
 1356TP3      O15094   4.382   3.520   9.020
 1356TP3     H115095   4.462   3.474   9.051
 1356TP3     H215096   4.378   3.494   8.926
 1357TP3      O15097   5.014   3.369   8.902
 1357TP3     H115098   4.993   3.277   8.926
 1357TP3     H215099   5.099   3.381   8.950
 1358TP3      O15100   3.892   3.007   8.961
 1358TP3     H115101   3.911   2.917   8.929
 1358TP3     H215102   3.826   3.036   8.896
 1359TP3      O15103   4.570   3.007   8.889
 1359TP3     H115104   4.537   3.047   8.806
 1359TP3     H215105   4.572   2.911   8.874
 1360TP3      O15106   5.138   2.995   8.637
 1360TP3     H115107   5.220   3.049   8.639
 1360TP3     H215108   5.072   3.066   8.640
 1361TP3      O15109   3.995   2.734   8.900
 1361TP3     H115110   4.036   2.648   8.895
 1361TP3     H215111   3.977   2.741   8.996
 1362TP3      O15112   4.382   2.629   8.635
 1362TP3     H115113   4.319   2.701   8.651
 1362TP3     H215114   4.423   2.662   8.553
 1363TP3      O15115   4.889   2.884   8.984
 1363TP3     H115116   4.983   2.883   8.958
 1363TP3     H215117   4.880   2.803   9.035
 1364TP3      O15118   4.436   2.372   8.732
 1364TP3     H115119   4.434   2.298   8.667
 1364TP3     H215120   4.416   2.450   8.676
 1365TP3      O15121   4.463   2.201   8.495
 1365TP3     H115122   4.513   2.249   8.425
 1365TP3     H215123   4.373   2.197   8.457
 1366TP3      O15124   4.617   2.759   8.527
 1366TP3     H115125   4.691   2.740   8.469
 1366TP3     H215126   4.576   2.837   8.485
 1367TP3      O15127   5.051   2.523   9.007
 1367TP3     H115128   5.081   2.430   8.999
 1367TP3     H215129   5.136   2.570   9.007
 1368TP3      O15130   5.185   2.813   8.840
 1368TP3     H115131   5.164   2.884   8.775
 1368TP3     H215132   5.279   2.799   8.815
 1369TP3      O15133   4.273   2.487   8.936
 1369TP3     H115134   4.191   2.436   8.920
 1369TP3     H215135   4.326   2.457   8.859
 1370TP3      O15136   4.543   1.947   8.533
 1370TP3     H115137   4.521   2.042   8.521
 1370TP3     H215138   4.471   1.907   8.481
 1371TP3      O15139   4.680   2.347   8.879
 1371TP3     H115140   4.657   2.292   8.957
 1371TP3     H215141   4.600   2.339   8.823
 1372TP3      O15142   4.945   2.296   8.810
 1372TP3     H115143   4.848   2.296   8.818
 1372TP3     H215144   4.970   2.231   8.879
 1373TP3      O15145   5.096   2.151   8.997
 1373TP3     H115146   5.091   2.053   9.001
 1373TP3     H215147   5.076   2.183   9.088
 1374TP3      O15148   4.083   2.288   8.910
 1374TP3     H115149   4.095   2.210   8.853
 1374TP3     H215150   4.060   2.247   8.997
 1375TP3      O15151   4.564   1.890   8.804
 1375TP3     H115152   4.631   1.819   8.802
 1375TP3     H215153   4.551   1.901   8.707
 1376TP3      O15154   4.598   2.047   9.017
 1376TP3     H115155   4.582   1.989   8.938
 1376TP3     H215156   4.536   2.120   9.001
 1377TP3      O15157   4.550   3.737   7.316
 1377TP3     H115158   4.640   3.758   7.339
 1377TP3     H215159   4.521   3.816   7.270
 1378TP3      O15160   3.910   3.202   7.283
 1378TP3     H115161   4.004   3.206   7.305
 1378TP3     H215162   3.902   3.138   7.213
 1379TP3      O15163   3.776   3.731   7.776
 1379TP3     H115164   3.705   3.681   7.731
 1379TP3     H215165   3.806   3.669   7.845
 1380TP3      O15166   3.862   3.549   7.968
 1380TP3     H115167   3.823   3.463   7.992
 1380TP3     H215168   3.891   3.583   8.054
 1381TP3      O15169   5.413   3.153   9.022
 1381TP3     H115170   5.322   3.155   9.058
 1381TP3     H215171   5.448   3.239   9.051
 1382TP3      O15172   5.414   3.351   8.478
 1382TP3     H115173   5.346   3.395   8.530
 1382TP3     H215174   5.365   3.316   8.400
 1383TP3      O15175   5.355   2.650   7.804
 1383TP3     H115176   5.353   2.553   7.810
 1383TP3     H215177   5.337   2.674   7.897
 1384TP3      O15178   3.868   2.859   8.217
 1384TP3     H115179   3.882   2.848   8.120
 1384TP3     H215180   3.958   2.836   8.249
 1385TP3      O15181   5.454   2.846   8.801
 1385TP3     H115182   5.508   2.768   8.787
 1385TP3     H215183   5.498   2.916   8.749
 1386TP3      O15184   5.330   2.405   7.657
 1386TP3     H115185   5.355   2.311   7.671
 1386TP3     H215186   5.405   2.440   7.609
 1387TP3      O15187   5.350   2.444   8.205
 1387TP3     H115188   5.445   2.462   8.183
 1387TP3     H215189   5.364   2.468   8.298
 1388TP3      O15190   5.405   2.534   8.484
 1388TP3     H115191   5.315   2.562   8.507
 1388TP3     H215192   5.447   2.616   8.454
 1389TP3      O15193   3.836   2.385   8.832
 1389TP3     H115194   3.928   2.361   8.854
 1389TP3     H215195   3.786   2.303   8.855
 1390TP3      O15196   5.351   2.132   7.669
 1390TP3     H115197   5.405   2.092   7.739
 1390TP3     H215198   5.324   2.054   7.615
 1391TP3      O15199   3.951   2.218   8.118
 1391TP3     H115200   3.995   2.133   8.140
 1391TP3     H215201   4.014   2.284   8.151
 1392TP3      O15202   3.778   2.520   8.218
 1392TP3     H115203   3.834   2.490   8.144
 1392TP3     H215204   3.830   2.598   8.244
 1393TP3      O15205   3.810   2.143   7.618
 1393TP3     H115206   3.715   2.163   7.616
 1393TP3     H215207   3.848   2.200   7.552
 1394TP3      O15208   5.285   3.641   7.825
 1394TP3     H115209   5.345   3.604   7.757
 1394TP3     H215210   5.345   3.686   7.885
 1395TP3      O15211   3.808   2.006   8.454
 1395TP3     H115212   3.743   1.987   8.524
 1395TP3     H215213   3.762   2.073   8.400
 1396TP3      O15214   4.037   3.329   8.865
 1396TP3     H115215   3.951   3.350   8.826
 1396TP3     H215216   4.011   3.316   8.957
 1397TP3      O15217   4.323   3.431   8.499
 1397TP3     H115218   4.300   3.522   8.475
 1397TP3     H215219   4.417   3.434   8.472
 1398TP3      O15220   4.752   3.572   8.786
 1398TP3     H115221   4.761   3.535   8.877
 1398TP3     H215222   4.844   3.603   8.769
 1399TP3      O15223   4.985   3.701   8.721
 1399TP3     H115224   5.058   3.642   8.699
 1399TP3     H215225   5.020   3.747   8.800
 1400TP3      O15226   5.465   1.946   8.654
 1400TP3     H115227   5.385   1.981   8.609
 1400TP3     H215228   5.495   1.875   8.596
 1401TP3      O15229   4.066   3.751   8.494
 1401TP3     H115230   3.992   3.804   8.458
 1401TP3     H215231   4.039   3.737   8.586
 1402TP3      O15232   4.312   3.709   8.402
 1402TP3     H115233   4.223   3.728   8.441
 1402TP3     H215234   4.309   3.771   8.327
 1403TP3      O15235   4.784   3.699   8.320
 1403TP3     H115236   4.738   3.756   8.257
 1403TP3     H215237   4.796   3.761   8.396
 1404TP3      O15238   5.008   3.575   8.435
 1404TP3     H115239   4.929   3.605   8.388
 1404TP3     H215240   5.062   3.655   8.424
 1405TP3      O15241   5.270   3.741   8.451
 1405TP3     H115242   5.251   3.832   8.420
 1405TP3     H215243   5.286   3.695   8.366
 1406TP3      O15244   4.016   3.616   8.192
 1406TP3     H115245   4.003   3.569   8.277
 1406TP3     H215246   4.097   3.575   8.156
 1407TP3      O15247   4.222   3.488   8.057
 1407TP3     H115248   4.208   3.395   8.084
 1407TP3     H215249   4.308   3.507   8.100
 1408TP3      O15250   4.480   3.536   8.147
 1408TP3     H115251   4.495   3.443   8.122
 1408TP3     H215252   4.487   3.532   8.243
 1409TP3      O15253   4.824   2.100   8.054
 1409TP3     H115254   4.759   2.038   8.090
 1409TP3     H215255   4.881   2.042   8.001
 1410TP3      O15256   5.331   1.904   8.080
 1410TP3     H115257   5.393   1.962   8.026
 1410TP3     H215258   5.245   1.936   8.045
 1411TP3      O15259  -0.022   2.033   7.936
 1411TP3     H115260   0.027   1.975   7.873
 1411TP3     H215261   0.016   2.120   7.921
 1412TP3      O15262   4.066   1.964   7.844
 1412TP3     H115263   3.982   1.946   7.799
 1412TP3     H215264   4.108   1.875   7.836
 1413TP3      O15265   4.504   1.953   7.821
 1413TP3     H115266   4.594   1.989   7.810
 1413TP3     H215267   4.504   1.934   7.915
 1414TP3      O15268   5.080   1.956   7.983
 1414TP3     H115269   5.077   1.970   7.887
 1414TP3     H215270   5.042   1.866   7.994
 1415TP3      O15271   5.199   1.952   7.540
 1415TP3     H115272   5.125   2.014   7.531
 1415TP3     H215273   5.159   1.871   7.578
 1416TP3      O15274   3.931   3.536   7.517
 1416TP3     H115275   3.857   3.538   7.453
 1416TP3     H215276   3.938   3.631   7.534
 1417TP3      O15277   4.628   2.156   7.507
 1417TP3     H115278   4.648   2.100   7.583
 1417TP3     H215279   4.633   2.245   7.550
 1418TP3      O15280   5.432   3.618   7.591
 1418TP3     H115281   5.457   3.530   7.554
 1418TP3     H215282   5.484   3.683   7.540
 1419TP3      O15283   4.047   2.019   8.788
 1419TP3     H115284   4.005   1.937   8.820
 1419TP3     H215285   4.136   2.010   8.830
 1420TP3      O15286   4.245   1.956   8.957
 1420TP3     H115287   4.334   1.923   8.937
 1420TP3     H215288   4.207   1.876   9.001
 1421TP3      O15289   5.090   1.884   8.971
 1421TP3     H115290   5.096   1.838   9.058
 1421TP3     H215291   5.182   1.877   8.939
 1422TP3      O15292   5.415   3.492   8.834
 1422TP3     H115293   5.338   3.469   8.778
 1422TP3     H215294   5.399   3.587   8.849
 1423TP3      O15295   1.200   4.764   7.828
 1423TP3     H115296   1.197   4.861   7.828
 1423TP3     H215297   1.131   4.743   7.763
 1424TP3      O15298   1.086   4.683   8.177
 1424TP3     H115299   1.082   4.624   8.255
 1424TP3     H215300   1.045   4.631   8.106
 1425TP3      O15301   0.323   4.653   8.323
 1425TP3     H115302   0.322   4.587   8.396
 1425TP3     H215303   0.390   4.713   8.359
 1426TP3      O15304   1.445   4.985   8.011
 1426TP3     H115305   1.411   4.910   8.062
 1426TP3     H215306   1.456   5.053   8.079
 1427TP3      O15307   0.407   5.100   8.176
 1427TP3     H115308   0.380   5.009   8.150
 1427TP3     H215309   0.502   5.085   8.182
 1428TP3      O15310   0.089   4.464   7.711
 1428TP3     H115311   0.033   4.539   7.738
 1428TP3     H215312   0.024   4.399   7.687
 1429TP3      O15313   0.152   4.675   7.957
 1429TP3     H115314   0.186   4.591   7.993
 1429TP3     H215315   0.215   4.695   7.886
 1430TP3      O15316   1.136   5.455   8.041
 1430TP3     H115317   1.214   5.403   8.011
 1430TP3     H215318   1.147   5.453   8.137
 1431TP3      O15319   0.923   4.929   8.235
 1431TP3     H115320   0.953   4.869   8.164
 1431TP3     H215321   1.008   4.944   8.280
 1432TP3      O15322   1.777   4.095   8.294
 1432TP3     H115323   1.798   4.151   8.373
 1432TP3     H215324   1.840   4.133   8.231
 1433TP3      O15325   1.240   4.374   8.263
 1433TP3     H115326   1.259   4.278   8.266
 1433TP3     H215327   1.230   4.387   8.168
 1434TP3      O15328   0.546   4.182   7.975
 1434TP3     H115329   0.562   4.265   7.926
 1434TP3     H215330   0.510   4.127   7.902
 1435TP3      O15331   1.321   4.191   7.817
 1435TP3     H115332   1.387   4.162   7.884
 1435TP3     H215333   1.373   4.252   7.764
 1436TP3      O15334   0.234   4.432   8.041
 1436TP3     H115335   0.283   4.368   8.095
 1436TP3     H215336   0.233   4.388   7.954
 1437TP3      O15337   0.724   4.579   7.993
 1437TP3     H115338   0.796   4.521   8.023
 1437TP3     H215339   0.677   4.517   7.934
 1438TP3      O15340   1.823   4.231   8.527
 1438TP3     H115341   1.768   4.310   8.509
 1438TP3     H215342   1.826   4.232   8.624
 1439TP3      O15343   0.441   4.069   8.384
 1439TP3     H115344   0.421   4.131   8.310
 1439TP3     H215345   0.375   4.102   8.451
 1440TP3      O15346   1.169   5.024   7.740
 1440TP3     H115347   1.149   5.007   7.647
 1440TP3     H215348   1.136   5.116   7.750
 1441TP3      O15349   0.692   4.840   8.397
 1441TP3     H115350   0.621   4.899   8.433
 1441TP3     H215351   0.761   4.905   8.373
 1442TP3      O15352   1.509   4.128   8.016
 1442TP3     H115353   1.483   4.051   8.067
 1442TP3     H215354   1.573   4.169   8.077
 1443TP3      O15355   0.400   4.255   8.191
 1443TP3     H115356   0.459   4.328   8.220
 1443TP3     H215357   0.452   4.219   8.114
 1444TP3      O15358   0.542   5.042   8.483
 1444TP3     H115359   0.533   5.136   8.457
 1444TP3     H215360   0.454   5.028   8.525
 1445TP3      O15361   0.146   5.009   7.561
 1445TP3     H115362   0.121   5.045   7.475
 1445TP3     H215363   0.148   5.087   7.619
 1446TP3      O15364   1.505   5.165   8.248
 1446TP3     H115365   1.409   5.179   8.259
 1446TP3     H215366   1.532   5.257   8.227
 1447TP3      O15367   1.537   3.994   8.379
 1447TP3     H115368   1.467   4.059   8.365
 1447TP3     H215369   1.612   4.035   8.332
 1448TP3      O15370   0.829   3.809   8.129
 1448TP3     H115371   0.810   3.713   8.120
 1448TP3     H215372   0.743   3.841   8.163
 1449TP3      O15373   1.332   5.346   7.899
 1449TP3     H115374   1.370   5.265   7.857
 1449TP3     H215375   1.392   5.415   7.866
 1450TP3      O15376   1.451   5.136   7.762
 1450TP3     H115377   1.424   5.071   7.695
 1450TP3     H215378   1.457   5.080   7.842
 1451TP3      O15379   1.613   5.000   8.605
 1451TP3     H115380   1.628   4.933   8.536
 1451TP3     H215381   1.634   5.083   8.557
 1452TP3      O15382   1.073   4.687   7.578
 1452TP3     H115383   1.003   4.748   7.548
 1452TP3     H215384   1.139   4.697   7.508
 1453TP3      O15385   1.805   4.633   8.404
 1453TP3     H115386   1.741   4.707   8.407
 1453TP3     H215387   1.858   4.659   8.326
 1454TP3      O15388   1.417   4.712   7.677
 1454TP3     H115389   1.339   4.731   7.733
 1454TP3     H215390   1.463   4.642   7.727
 1455TP3      O15391   1.405   4.525   8.588
 1455TP3     H115392   1.403   4.610   8.635
 1455TP3     H215393   1.343   4.549   8.516
 1456TP3      O15394   0.577   4.777   7.868
 1456TP3     H115395   0.539   4.739   7.785
 1456TP3     H215396   0.636   4.704   7.899
 1457TP3      O15397   0.705   5.108   8.137
 1457TP3     H115398   0.708   5.066   8.049
 1457TP3     H215399   0.783   5.068   8.179
 1458TP3      O15400   0.605   4.645   8.236
 1458TP3     H115401   0.654   4.654   8.151
 1458TP3     H215402   0.643   4.716   8.292
 1459TP3      O15403   1.245   5.206   8.302
 1459TP3     H115404   1.216   5.278   8.360
 1459TP3     H215405   1.218   5.124   8.350
 1460TP3      O15406   0.702   5.094   8.700
 1460TP3     H115407   0.647   5.153   8.755
 1460TP3     H215408   0.639   5.070   8.629
 1461TP3      O15409   0.380   4.742   8.579
 1461TP3     H115410   0.412   4.760   8.670
 1461TP3     H215411   0.288   4.714   8.598
 1462TP3      O15412   1.071   5.301   7.786
 1462TP3     H115413   1.111   5.331   7.869
 1462TP3     H215414   1.008   5.370   7.763
 1463TP3      O15415   0.519   5.294   8.770
 1463TP3     H115416   0.509   5.280   8.674
 1463TP3     H215417   0.430   5.268   8.802
 1464TP3      O15418   1.667   3.804   7.445
 1464TP3     H115419   1.569   3.805   7.451
 1464TP3     H215420   1.682   3.881   7.389
 1465TP3      O15421   0.475   4.672   7.627
 1465TP3     H115422   0.442   4.750   7.577
 1465TP3     H215423   0.404   4.610   7.608
 1466TP3      O15424   1.768   5.240   7.267
 1466TP3     H115425   1.799   5.332   7.278
 1466TP3     H215426   1.854   5.192   7.271
 1467TP3      O15427   0.093   4.926   8.510
 1467TP3     H115428   0.053   4.916   8.423
 1467TP3     H215429   0.089   4.833   8.539
 1468TP3      O15430   0.062   5.204   8.184
 1468TP3     H115431   0.154   5.177   8.193
 1468TP3     H215432   0.050   5.266   8.256
 1469TP3      O15433   1.878   5.266   8.779
 1469TP3     H115434   1.866   5.170   8.765
 1469TP3     H215435   1.787   5.290   8.811
 1470TP3      O15436   0.964   5.218   8.635
 1470TP3     H115437   0.981   5.290   8.700
 1470TP3     H215438   0.884   5.173   8.671
 1471TP3      O15439   0.394   5.437   7.801
 1471TP3     H115440   0.406   5.412   7.896
 1471TP3     H215441   0.302   5.408   7.789
 1472TP3      O15442   1.324   5.515   7.323
 1472TP3     H115443   1.360   5.433   7.289
 1472TP3     H215444   1.312   5.494   7.418
 1473TP3      O15445   1.264   5.471   7.606
 1473TP3     H115446   1.180   5.506   7.639
 1473TP3     H215447   1.293   5.411   7.676
 1474TP3      O15448   1.590   4.408   8.807
 1474TP3     H115449   1.539   4.451   8.737
 1474TP3     H215450   1.586   4.315   8.780
 1475TP3      O15451   0.304   5.068   8.620
 1475TP3     H115452   0.321   5.019   8.705
 1475TP3     H215453   0.226   5.017   8.587
 1476TP3      O15454   0.577   3.901   8.206
 1476TP3     H115455   0.488   3.888   8.167
 1476TP3     H215456   0.560   3.983   8.256
 1477TP3      O15457   1.041   3.861   8.537
 1477TP3     H115458   1.078   3.820   8.618
 1477TP3     H215459   0.943   3.855   8.552
 1478TP3      O15460   1.364   4.253   8.624
 1478TP3     H115461   1.309   4.228   8.703
 1478TP3     H215462   1.347   4.348   8.610
 1479TP3      O15463   0.583   4.397   8.332
 1479TP3     H115464   0.516   4.402   8.403
 1479TP3     H215465   0.578   4.489   8.297
 1480TP3      O15466   0.581   4.405   7.823
 1480TP3     H115467   0.486   4.386   7.807
 1480TP3     H215468   0.619   4.377   7.738
 1481TP3      O15469   1.130   4.455   7.695
 1481TP3     H115470   1.100   4.543   7.663
 1481TP3     H215471   1.202   4.436   7.632
 1482TP3      O15472   1.039   4.480   8.835
 1482TP3     H115473   0.987   4.401   8.865
 1482TP3     H215474   1.122   4.470   8.885
 1483TP3      O15475   1.239   4.412   7.979
 1483TP3     H115476   1.205   4.467   7.906
 1483TP3     H215477   1.242   4.325   7.936
 1484TP3      O15478   0.341   4.423   8.494
 1484TP3     H115479   0.362   4.463   8.580
 1484TP3     H215480   0.306   4.337   8.520
 1485TP3      O15481   0.037   4.172   7.874
 1485TP3     H115482   0.079   4.150   7.960
 1485TP3     H215483   0.072   4.107   7.812
 1486TP3      O15484   0.145   4.227   7.452
 1486TP3     H115485   0.192   4.256   7.371
 1486TP3     H215486   0.061   4.271   7.438
 1487TP3      O15487   1.151   4.563   8.429
 1487TP3     H115488   1.195   4.493   8.374
 1487TP3     H215489   1.102   4.511   8.495
 1488TP3      O15490   0.837   4.169   7.920
 1488TP3     H115491   0.743   4.164   7.946
 1488TP3     H215492   0.884   4.139   8.000
 1489TP3      O15493   0.318   4.314   7.804
 1489TP3     H115494   0.229   4.335   7.770
 1489TP3     H215495   0.336   4.228   7.761
 1490TP3      O15496   0.677   4.323   7.564
 1490TP3     H115497   0.772   4.324   7.589
 1490TP3     H215498   0.660   4.406   7.520
 1491TP3      O15499   1.278   4.091   8.238
 1491TP3     H115500   1.210   4.089   8.309
 1491TP3     H215501   1.228   4.056   8.162
 1492TP3      O15502   0.373   4.917   8.828
 1492TP3     H115503   0.443   4.910   8.895
 1492TP3     H215504   0.296   4.908   8.888
 1493TP3      O15505   0.962   4.440   8.106
 1493TP3     H115506   1.024   4.388   8.053
 1493TP3     H215507   0.949   4.384   8.183
 1494TP3      O15508   0.466   4.058   7.743
 1494TP3     H115509   0.430   3.969   7.760
 1494TP3     H215510   0.548   4.037   7.697
 1495TP3      O15511   0.827   4.269   8.352
 1495TP3     H115512   0.747   4.325   8.355
 1495TP3     H215513   0.885   4.310   8.418
 1496TP3      O15514   0.886   4.883   7.520
 1496TP3     H115515   0.800   4.849   7.491
 1496TP3     H215516   0.864   4.917   7.610
 1497TP3      O15517   1.613   4.821   8.399
 1497TP3     H115518   1.663   4.872   8.331
 1497TP3     H215519   1.525   4.816   8.356
 1498TP3      O15520   1.267   4.177   7.334
 1498TP3     H115521   1.175   4.203   7.322
 1498TP3     H215522   1.306   4.259   7.368
 1499TP3      O15523   1.036   4.923   8.645
 1499TP3     H115524   0.996   4.875   8.718
 1499TP3     H215525   1.004   5.013   8.658
 1500TP3      O15526   1.338   4.376   7.507
 1500TP3     H115527   1.427   4.359   7.542
 1500TP3     H215528   1.350   4.447   7.441
 1501TP3      O15529   0.401   4.838   8.099
 1501TP3     H115530   0.460   4.825   8.024
 1501TP3     H215531   0.405   4.752   8.145
 1502TP3      O15532   1.093   5.046   7.441
 1502TP3     H115533   1.044   5.129   7.462
 1502TP3     H215534   1.023   4.978   7.445
 1503TP3      O15535   0.113   4.660   8.614
 1503TP3     H115536   0.135   4.623   8.702
 1503TP3     H215537   0.035   4.608   8.588
 1504TP3      O15538   0.807   4.634   8.836
 1504TP3     H115539   0.756   4.593   8.765
 1504TP3     H215540   0.893   4.589   8.830
 1505TP3      O15541   1.269   5.175   8.638
 1505TP3     H115542   1.177   5.184   8.613
 1505TP3     H215543   1.258   5.193   8.734
 1506TP3      O15544   1.822   4.386   7.480
 1506TP3     H115545   1.767   4.355   7.408
 1506TP3     H215546   1.833   4.481   7.457
 1507TP3      O15547   1.835   4.968   8.755
 1507TP3     H115548   1.744   4.991   8.722
 1507TP3     H215549   1.886   4.964   8.671
 1508TP3      O15550   1.643   5.257   7.507
 1508TP3     H115551   1.627   5.172   7.551
 1508TP3     H215552   1.697   5.233   7.429
 1509TP3      O15553   1.385   4.748   8.229
 1509TP3     H115554   1.291   4.729   8.212
 1509TP3     H215555   1.428   4.674   8.181
 1510TP3      O15556   0.634   5.183   7.847
 1510TP3     H115557   0.678   5.265   7.818
 1510TP3     H215558   0.549   5.194   7.803
 1511TP3      O15559   0.775   4.946   7.784
 1511TP3     H115560   0.742   5.038   7.795
 1511TP3     H215561   0.709   4.896   7.836
 1512TP3      O15562   0.820   5.359   8.424
 1512TP3     H115563   0.860   5.446   8.409
 1512TP3     H215564   0.882   5.318   8.490
 1513TP3      O15565   0.648   5.423   7.722
 1513TP3     H115566   0.553   5.436   7.746
 1513TP3     H215567   0.684   5.504   7.764
 1514TP3      O15568   1.164   4.959   8.389
 1514TP3     H115569   1.140   4.945   8.483
 1514TP3     H215570   1.232   4.891   8.373
 1515TP3      O15571   1.455   5.417   8.635
 1515TP3     H115572   1.380   5.372   8.593
 1515TP3     H215573   1.463   5.497   8.580
 1516TP3      O15574   1.865  -0.035   7.285
 1516TP3     H115575   1.940   0.024   7.305
 1516TP3     H215576   1.794  -0.005   7.345
 1517TP3      O15577   0.256   4.144   8.567
 1517TP3     H115578   0.176   4.197   8.584
 1517TP3     H215579   0.247   4.075   8.634
 1518TP3      O15580   1.483   4.943   7.537
 1518TP3     H115581   1.458   4.852   7.564
 1518TP3     H215582   1.579   4.935   7.542
 1519TP3      O15583   0.226   5.322   8.423
 1519TP3     H115584   0.253   5.228   8.424
 1519TP3     H215585   0.248   5.350   8.513
 1520TP3      O15586   0.710   5.128   7.395
 1520TP3     H115587   0.717   5.084   7.478
 1520TP3     H215588   0.701   5.222   7.419
 1521TP3      O15589   0.359   4.858   7.458
 1521TP3     H115590   0.275   4.894   7.494
 1521TP3     H215591   0.394   4.931   7.405
 1522TP3      O15592   1.138   4.123   8.479
 1522TP3     H115593   1.208   4.133   8.545
 1522TP3     H215594   1.099   4.037   8.504
 1523TP3      O15595   1.204   4.083   7.589
 1523TP3     H115596   1.235   4.120   7.505
 1523TP3     H215597   1.262   4.128   7.654
 1524TP3      O15598   0.982   5.293   7.463
 1524TP3     H115599   0.893   5.334   7.467
 1524TP3     H215600   1.026   5.351   7.400
 1525TP3      O15601   0.925   4.265   7.658
 1525TP3     H115602   1.009   4.315   7.669
 1525TP3     H215603   0.904   4.237   7.750
 1526TP3      O15604   0.991   4.362   8.589
 1526TP3     H115605   0.992   4.412   8.673
 1526TP3     H215606   1.056   4.290   8.599
 1527TP3      O15607   1.017   3.958   7.757
 1527TP3     H115608   0.977   4.026   7.812
 1527TP3     H215609   1.085   4.013   7.710
 1528TP3      O15610   0.733   5.400   7.473
 1528TP3     H115611   0.718   5.476   7.416
 1528TP3     H215612   0.687   5.424   7.556
 1529TP3      O15613   0.595   4.084   7.423
 1529TP3     H115614   0.574   4.165   7.472
 1529TP3     H215615   0.669   4.048   7.473
 1530TP3      O15616   1.601   4.145   8.672
 1530TP3     H115617   1.510   4.180   8.656
 1530TP3     H215618   1.634   4.140   8.580
 1531TP3      O15619   1.468   4.524   8.073
 1531TP3     H115620   1.387   4.479   8.041
 1531TP3     H215621   1.516   4.455   8.123
 1532TP3      O15622   0.239   4.390   7.258
 1532TP3     H115623   0.243   4.485   7.244
 1532TP3     H215624   0.168   4.361   7.199
 1533TP3      O15625   1.568   5.439   8.268
 1533TP3     H115626   1.554   5.489   8.184
 1533TP3     H215627   1.665   5.449   8.269
 1534TP3      O15628   0.319   3.866   8.123
 1534TP3     H115629   0.318   3.865   8.025
 1534TP3     H215630   0.285   3.775   8.139
 1535TP3      O15631   0.218   5.237   7.734
 1535TP3     H115632   0.132   5.284   7.731
 1535TP3     H215633   0.261   5.285   7.661
 1536TP3      O15634   0.127   5.504   8.881
 1536TP3     H115635   0.192   5.483   8.951
 1536TP3     H215636   0.102   5.419   8.844
 1537TP3      O15637   0.606   5.386   9.030
 1537TP3     H115638   0.697   5.363   9.051
 1537TP3     H215639   0.605   5.367   8.934
 1538TP3      O15640   1.248   5.246   8.901
 1538TP3     H115641   1.221   5.157   8.932
 1538TP3     H215642   1.333   5.262   8.946
 1539TP3      O15643   0.139   4.916   8.945
 1539TP3     H115644   0.152   4.819   8.939
 1539TP3     H215645   0.055   4.929   8.898
 1540TP3      O15646   0.806   4.898   8.885
 1540TP3     H115647   0.761   4.929   8.805
 1540TP3     H215648   0.801   4.799   8.878
 1541TP3      O15649   1.365   4.882   8.641
 1541TP3     H115650   1.449   4.933   8.639
 1541TP3     H215651   1.301   4.955   8.642
 1542TP3      O15652   0.191   4.601   8.896
 1542TP3     H115653   0.278   4.556   8.883
 1542TP3     H215654   0.201   4.622   8.991
 1543TP3      O15655   0.626   4.492   8.600
 1543TP3     H115656   0.579   4.554   8.661
 1543TP3     H215657   0.666   4.556   8.538
 1544TP3      O15658   1.123   4.772   8.988
 1544TP3     H115659   1.213   4.757   8.958
 1544TP3     H215660   1.100   4.690   9.034
 1545TP3      O15661   1.723   4.779   7.167
 1545TP3     H115662   1.704   4.746   7.079
 1545TP3     H215663   1.729   4.875   7.157
 1546TP3      O15664   0.664   4.253   8.731
 1546TP3     H115665   0.669   4.183   8.664
 1546TP3     H215666   0.646   4.334   8.678
 1547TP3      O15667   0.694   4.089   8.496
 1547TP3     H115668   0.745   4.137   8.425
 1547TP3     H215669   0.605   4.085   8.456
 1548TP3      O15670   0.845   4.645   8.518
 1548TP3     H115671   0.921   4.628   8.462
 1548TP3     H215672   0.805   4.725   8.482
 1549TP3      O15673   1.282   4.409   9.007
 1549TP3     H115674   1.305   4.314   9.008
 1549TP3     H215675   1.368   4.452   9.016
 1550TP3      O15676   1.421   4.696   8.842
 1550TP3     H115677   1.393   4.763   8.776
 1550TP3     H215678   1.516   4.691   8.818
 1551TP3      O15679   0.507   4.333   8.955
 1551TP3     H115680   0.420   4.312   8.918
 1551TP3     H215681   0.556   4.350   8.873
 1552TP3      O15682   0.769   3.835   8.535
 1552TP3     H115683   0.746   3.930   8.524
 1552TP3     H215684   0.704   3.793   8.477
 1553TP3      O15685   0.896   4.265   8.903
 1553TP3     H115686   0.858   4.244   8.990
 1553TP3     H215687   0.819   4.248   8.845
 1554TP3      O15688   1.170   4.183   8.810
 1554TP3     H115689   1.074   4.189   8.823
 1554TP3     H215690   1.195   4.118   8.880
 1555TP3      O15691   1.316   4.040   8.992
 1555TP3     H115692   1.324   3.943   8.999
 1555TP3     H215693   1.302   4.072   9.085
 1556TP3      O15694   0.298   4.164   8.905
 1556TP3     H115695   0.336   4.090   8.856
 1556TP3     H215696   0.297   4.133   8.998
 1557TP3      O15697   0.794   3.776   8.804
 1557TP3     H115698   0.862   3.706   8.803
 1557TP3     H215699   0.781   3.786   8.707
 1558TP3      O15700   0.825   3.929   9.019
 1558TP3     H115701   0.809   3.879   8.936
 1558TP3     H215702   0.771   4.010   9.005
 1559TP3      O15703   0.098   5.426   7.963
 1559TP3     H115704   0.051   5.345   7.988
 1559TP3     H215705   0.113   5.466   8.050
 1560TP3      O15706   1.839  -0.006   8.255
 1560TP3     H115707   1.859  -0.007   8.350
 1560TP3     H215708   1.917   0.040   8.223
 1561TP3      O15709   1.831   5.429   8.530
 1561TP3     H115710   1.763   5.361   8.510
 1561TP3     H215711   1.859   5.407   8.620
 1562TP3      O15712   1.649   5.042   9.024
 1562TP3     H115713   1.557   5.044   9.060
 1562TP3     H215714   1.685   5.126   9.057
 1563TP3      O15715   1.777   4.872   7.558
 1563TP3     H115716   1.858   4.924   7.569
 1563TP3     H215717   1.782   4.809   7.633
 1564TP3      O15718   1.817   4.686   7.753
 1564TP3     H115719   1.737   4.641   7.788
 1564TP3     H215720   1.872   4.698   7.832
 1565TP3      O15721   1.787   4.956   8.246
 1565TP3     H115722   1.868   4.916   8.209
 1565TP3     H215723   1.802   5.051   8.233
 1566TP3      O15724   1.638   5.238   8.488
 1566TP3     H115725   1.568   5.287   8.535
 1566TP3     H215726   1.589   5.211   8.408
 1567TP3      O15727   1.842   4.659   7.387
 1567TP3     H115728   1.786   4.699   7.316
 1567TP3     H215729   1.847   4.737   7.446
 1568TP3      O15730   1.599   4.532   7.810
 1568TP3     H115731   1.583   4.437   7.804
 1568TP3     H215732   1.568   4.552   7.900
 1569TP3      O15733   0.094   4.737   8.221
 1569TP3     H115734   0.106   4.740   8.123
 1569TP3     H215735   0.186   4.721   8.249
 1570TP3      O15736   1.686   4.730   8.786
 1570TP3     H115737   1.747   4.653   8.790
 1570TP3     H215738   1.747   4.807   8.778
 1571TP3      O15739   1.832   4.516   8.841
 1571TP3     H115740   1.743   4.477   8.828
 1571TP3     H215741   1.888   4.436   8.839
 1572TP3      O15742   1.563   4.289   7.652
 1572TP3     H115743   1.594   4.196   7.667
 1572TP3     H215744   1.645   4.329   7.619
 1573TP3      O15745   1.628   4.347   8.201
 1573TP3     H115746   1.724   4.369   8.198
 1573TP3     H215747   1.611   4.361   8.295
 1574TP3      O15748   1.636   4.418   8.473
 1574TP3     H115749   1.546   4.445   8.505
 1574TP3     H215750   1.679   4.505   8.454
 1575TP3      O15751   0.074   4.266   8.815
 1575TP3     H115752   0.162   4.247   8.855
 1575TP3     H215753   0.019   4.199   8.858
 1576TP3      O15754   1.868   3.832   9.010
 1576TP3     H115755   1.900   3.762   8.951
 1576TP3     H215756   1.869   3.909   8.948
 1577TP3      O15757   1.630   4.027   7.659
 1577TP3     H115758   1.659   3.985   7.743
 1577TP3     H215759   1.574   3.956   7.620
 1578TP3      O15760   0.171   4.101   8.115
 1578TP3     H115761   0.227   4.022   8.133
 1578TP3     H215762   0.229   4.170   8.152
 1579TP3      O15763   0.059   4.409   8.242
 1579TP3     H115764   0.101   4.392   8.155
 1579TP3     H215765   0.073   4.505   8.245
 1580TP3      O15766   1.812   4.037   8.844
 1580TP3     H115767   1.720   4.068   8.842
 1580TP3     H215768   1.810   3.981   8.765
 1581TP3      O15769   1.815   4.027   7.305
 1581TP3     H115770   1.855   3.954   7.256
 1581TP3     H215771   1.891   4.084   7.323
 1582TP3      O15772   0.071   4.024   7.601
 1582TP3     H115773  -0.023   4.048   7.608
 1582TP3     H215774   0.106   4.092   7.540
 1583TP3      O15775   0.033   3.927   8.425
 1583TP3     H115776  -0.038   3.913   8.489
 1583TP3     H215777  -0.020   3.985   8.367
 1584TP3      O15778   0.259   5.221   8.870
 1584TP3     H115779   0.177   5.222   8.821
 1584TP3     H215780   0.229   5.210   8.961
 1585TP3      O15781   0.548   5.311   8.500
 1585TP3     H115782   0.514   5.397   8.478
 1585TP3     H215783   0.640   5.319   8.467
 1586TP3      O15784   1.013   5.431   8.788
 1586TP3     H115785   1.007   5.415   8.887
 1586TP3     H215786   1.094   5.482   8.787
 1587TP3      O15787   1.717   3.843   8.635
 1587TP3     H115788   1.635   3.876   8.594
 1587TP3     H215789   1.731   3.759   8.585
 1588TP3      O15790   1.241   5.466   8.420
 1588TP3     H115791   1.154   5.502   8.403
 1588TP3     H215792   1.296   5.545   8.409
 1589TP3      O15793   0.225   5.462   8.197
 1589TP3     H115794   0.222   5.435   8.291
 1589TP3     H215795   0.310   5.427   8.166
 1590TP3      O15796   0.436   5.359   8.056
 1590TP3     H115797   0.433   5.263   8.080
 1590TP3     H215798   0.522   5.384   8.095
 1591TP3      O15799   0.685   5.387   8.153
 1591TP3     H115800   0.716   5.298   8.127
 1591TP3     H215801   0.710   5.393   8.246
 1592TP3      O15802   1.055   3.985   8.061
 1592TP3     H115803   0.984   3.924   8.087
 1592TP3     H215804   1.108   3.931   8.001
 1593TP3      O15805   1.571   3.787   8.059
 1593TP3     H115806   1.629   3.850   8.009
 1593TP3     H215807   1.481   3.823   8.041
 1594TP3      O15808   1.734   3.919   7.887
 1594TP3     H115809   1.802   3.860   7.849
 1594TP3     H215810   1.787   4.001   7.903
 1595TP3      O15811   0.299   3.847   7.846
 1595TP3     H115812   0.218   3.832   7.792
 1595TP3     H215813   0.338   3.757   7.838
 1596TP3      O15814   0.164   3.824   7.420
 1596TP3     H115815   0.209   3.887   7.360
 1596TP3     H215816   0.118   3.887   7.478
 1597TP3      O15817   0.734   3.837   7.823
 1597TP3     H115818   0.821   3.876   7.806
 1597TP3     H215819   0.738   3.819   7.917
 1598TP3      O15820   1.314   3.843   7.978
 1598TP3     H115821   1.300   3.856   7.883
 1598TP3     H215822   1.274   3.754   7.993
 1599TP3      O15823   1.432   3.847   7.550
 1599TP3     H115824   1.356   3.905   7.537
 1599TP3     H215825   1.391   3.761   7.574
 1600TP3      O15826   0.174   5.384   7.518
 1600TP3     H115827   0.105   5.386   7.449
 1600TP3     H215828   0.180   5.481   7.527
 1601TP3      O15829   0.356   4.001   7.277
 1601TP3     H115830   0.404   3.949   7.212
 1601TP3     H215831   0.423   4.042   7.332
 1602TP3      O15832   1.715   5.487   7.650
 1602TP3     H115833   1.700   5.407   7.595
 1602TP3     H215834   1.710   5.557   7.582
 1603TP3      O15835   0.280   3.894   8.770
 1603TP3     H115836   0.238   3.832   8.831
 1603TP3     H215837   0.366   3.898   8.819
 1604TP3      O15838   0.473   3.842   8.950
 1604TP3     H115839   0.565   3.811   8.937
 1604TP3     H215840   0.441   3.766   9.004
 1605TP3      O15841   1.320   3.767   8.974
 1605TP3     H115842   1.331   3.720   9.059
 1605TP3     H215843   1.412   3.764   8.938
 1606TP3      O15844   1.632   5.364   8.841
 1606TP3     H115845   1.563   5.363   8.771
 1606TP3     H215846   1.646   5.460   8.845
 1607TP3      O15847   3.061   4.803   7.739
 1607TP3     H115848   3.074   4.876   7.804
 1607TP3     H215849   3.000   4.749   7.791
 1608TP3      O15850   2.949   4.694   8.189
 1608TP3     H115851   2.974   4.627   8.256
 1608TP3     H215852   2.948   4.642   8.107
 1609TP3      O15853   2.202   4.656   8.333
 1609TP3     H115854   2.212   4.586   8.400
 1609TP3     H215855   2.278   4.712   8.356
 1610TP3      O15856   3.334   4.991   8.014
 1610TP3     H115857   3.294   4.914   8.057
 1610TP3     H215858   3.338   5.054   8.088
 1611TP3      O15859   2.297   5.102   8.173
 1611TP3     H115860   2.268   5.012   8.149
 1611TP3     H215861   2.392   5.086   8.180
 1612TP3      O15862   1.966   4.458   7.718
 1612TP3     H115863   1.915   4.540   7.727
 1612TP3     H215864   1.903   4.400   7.675
 1613TP3      O15865   2.035   4.680   7.953
 1613TP3     H115866   2.067   4.595   7.993
 1613TP3     H215867   2.099   4.694   7.882
 1614TP3      O15868   3.023   5.460   8.045
 1614TP3     H115869   3.096   5.402   8.013
 1614TP3     H215870   3.032   5.452   8.141
 1615TP3      O15871   2.803   4.933   8.228
 1615TP3     H115872   2.837   4.866   8.166
 1615TP3     H215873   2.887   4.946   8.277
 1616TP3      O15874   3.664   4.092   8.293
 1616TP3     H115875   3.682   4.150   8.369
 1616TP3     H215876   3.725   4.132   8.230
 1617TP3      O15877   3.135   4.373   8.255
 1617TP3     H115878   3.143   4.277   8.257
 1617TP3     H215879   3.110   4.386   8.162
 1618TP3      O15880   2.432   4.184   7.976
 1618TP3     H115881   2.449   4.265   7.925
 1618TP3     H215882   2.397   4.126   7.905
 1619TP3      O15883   3.219   4.184   7.807
 1619TP3     H115884   3.275   4.160   7.884
 1619TP3     H215885   3.270   4.254   7.766
 1620TP3      O15886   2.098   4.429   8.053
 1620TP3     H115887   2.162   4.374   8.103
 1620TP3     H215888   2.112   4.395   7.963
 1621TP3      O15889   2.604   4.582   7.988
 1621TP3     H115890   2.682   4.531   8.021
 1621TP3     H215891   2.563   4.515   7.932
 1622TP3      O15892   3.708   4.232   8.522
 1622TP3     H115893   3.653   4.312   8.507
 1622TP3     H215894   3.711   4.231   8.618
 1623TP3      O15895   2.332   4.074   8.383
 1623TP3     H115896   2.302   4.131   8.309
 1623TP3     H215897   2.265   4.097   8.451
 1624TP3      O15898   3.074   5.063   7.733
 1624TP3     H115899   3.033   5.007   7.665
 1624TP3     H215900   3.013   5.139   7.742
 1625TP3      O15901   2.573   4.839   8.397
 1625TP3     H115902   2.509   4.906   8.430
 1625TP3     H215903   2.649   4.895   8.376
 1626TP3      O15904   3.392   4.128   8.014
 1626TP3     H115905   3.370   4.052   8.069
 1626TP3     H215906   3.457   4.172   8.071
 1627TP3      O15907   2.287   4.259   8.187
 1627TP3     H115908   2.349   4.328   8.219
 1627TP3     H215909   2.339   4.221   8.111
 1628TP3      O15910   2.429   5.040   8.490
 1628TP3     H115911   2.421   5.133   8.457
 1628TP3     H215912   2.339   5.029   8.529
 1629TP3      O15913   3.394   5.168   8.243
 1629TP3     H115914   3.298   5.182   8.257
 1629TP3     H215915   3.420   5.260   8.224
 1630TP3      O15916   3.422   3.996   8.380
 1630TP3     H115917   3.351   4.060   8.364
 1630TP3     H215918   3.498   4.036   8.334
 1631TP3      O15919   2.715   3.807   8.129
 1631TP3     H115920   2.684   3.716   8.110
 1631TP3     H215921   2.630   3.847   8.160
 1632TP3      O15922   3.219   5.350   7.904
 1632TP3     H115923   3.255   5.270   7.861
 1632TP3     H215924   3.275   5.418   7.865
 1633TP3      O15925   3.353   5.134   7.762
 1633TP3     H115926   3.311   5.073   7.699
 1633TP3     H215927   3.344   5.080   7.843
 1634TP3      O15928   3.520   5.002   8.598
 1634TP3     H115929   3.515   4.935   8.527
 1634TP3     H215930   3.522   5.086   8.549
 1635TP3      O15931   3.694   4.634   8.404
 1635TP3     H115932   3.628   4.706   8.408
 1635TP3     H215933   3.744   4.660   8.325
 1636TP3      O15934   3.306   4.698   7.667
 1636TP3     H115935   3.228   4.732   7.718
 1636TP3     H215936   3.347   4.642   7.734
 1637TP3      O15937   3.290   4.523   8.588
 1637TP3     H115938   3.284   4.610   8.633
 1637TP3     H215939   3.231   4.553   8.516
 1638TP3      O15940   2.457   4.772   7.860
 1638TP3     H115941   2.429   4.733   7.776
 1638TP3     H215942   2.517   4.705   7.898
 1639TP3      O15943   2.590   5.108   8.140
 1639TP3     H115944   2.590   5.067   8.052
 1639TP3     H215945   2.669   5.067   8.180
 1640TP3      O15946   2.487   4.646   8.236
 1640TP3     H115947   2.537   4.653   8.152
 1640TP3     H215948   2.531   4.715   8.292
 1641TP3      O15949   3.135   5.219   8.299
 1641TP3     H115950   3.101   5.282   8.363
 1641TP3     H215951   3.109   5.131   8.337
 1642TP3      O15952   2.585   5.097   8.705
 1642TP3     H115953   2.534   5.163   8.755
 1642TP3     H215954   2.527   5.075   8.629
 1643TP3      O15955   2.284   4.710   8.607
 1643TP3     H115956   2.293   4.772   8.681
 1643TP3     H215957   2.188   4.710   8.598
 1644TP3      O15958   2.955   5.293   7.793
 1644TP3     H115959   2.999   5.335   7.868
 1644TP3     H215960   2.899   5.362   7.755
 1645TP3      O15961   2.400   5.300   8.769
 1645TP3     H115962   2.399   5.281   8.673
 1645TP3     H215963   2.312   5.269   8.798
 1646TP3      O15964   3.548   3.795   7.419
 1646TP3     H115965   3.460   3.815   7.457
 1646TP3     H215966   3.580   3.882   7.389
 1647TP3      O15967   2.358   4.665   7.607
 1647TP3     H115968   2.326   4.755   7.588
 1647TP3     H215969   2.278   4.611   7.607
 1648TP3      O15970   1.962   4.920   8.523
 1648TP3     H115971   1.918   4.911   8.436
 1648TP3     H215972   1.976   4.825   8.542
 1649TP3      O15973   1.941   5.193   8.199
 1649TP3     H115974   2.037   5.185   8.186
 1649TP3     H215975   1.933   5.280   8.242
 1650TP3      O15976   3.765   5.268   8.780
 1650TP3     H115977   3.755   5.172   8.765
 1650TP3     H215978   3.673   5.290   8.807
 1651TP3      O15979   2.846   5.223   8.631
 1651TP3     H115980   2.867   5.289   8.701
 1651TP3     H215981   2.774   5.170   8.670
 1652TP3      O15982   2.284   5.437   7.804
 1652TP3     H115983   2.291   5.412   7.899
 1652TP3     H215984   2.195   5.399   7.784
 1653TP3      O15985   3.241   5.504   7.347
 1653TP3     H115986   3.235   5.425   7.295
 1653TP3     H215987   3.208   5.473   7.433
 1654TP3      O15988   3.146   5.471   7.598
 1654TP3     H115989   3.062   5.508   7.627
 1654TP3     H215990   3.174   5.415   7.671
 1655TP3      O15991   3.478   4.398   8.804
 1655TP3     H115992   3.425   4.457   8.745
 1655TP3     H215993   3.457   4.312   8.763
 1656TP3      O15994   2.194   5.052   8.611
 1656TP3     H115995   2.210   5.014   8.701
 1656TP3     H215996   2.105   5.016   8.588
 1657TP3      O15997   2.464   3.897   8.201
 1657TP3     H115998   2.373   3.884   8.166
 1657TP3     H215999   2.449   3.975   8.257
 1658TP3      O16000   2.925   3.861   8.530
 1658TP3     H116001   2.967   3.824   8.611
 1658TP3     H216002   2.829   3.859   8.552
 1659TP3      O16003   3.257   4.252   8.635
 1659TP3     H116004   3.188   4.227   8.701
 1659TP3     H216005   3.233   4.343   8.607
 1660TP3      O16006   3.333   4.730   7.229
 1660TP3     H116007   3.323   4.705   7.136
 1660TP3     H216008   3.410   4.787   7.223
 1661TP3      O16009   2.467   4.397   8.336
 1661TP3     H116010   2.394   4.401   8.400
 1661TP3     H216011   2.465   4.486   8.295
 1662TP3      O16012   2.466   4.399   7.819
 1662TP3     H116013   2.370   4.383   7.805
 1662TP3     H216014   2.501   4.377   7.730
 1663TP3      O16015   3.005   4.449   7.663
 1663TP3     H116016   2.995   4.544   7.677
 1663TP3     H216017   3.096   4.439   7.632
 1664TP3      O16018   2.920   4.483   8.838
 1664TP3     H116019   2.874   4.400   8.864
 1664TP3     H216020   3.007   4.474   8.881
 1665TP3      O16021   3.077   4.324   7.989
 1665TP3     H116022   3.083   4.417   7.956
 1665TP3     H216023   3.135   4.284   7.922
 1666TP3      O16024   2.230   4.415   8.493
 1666TP3     H116025   2.249   4.456   8.578
 1666TP3     H216026   2.189   4.331   8.521
 1667TP3      O16027   1.900   4.123   7.902
 1667TP3     H116028   1.972   4.120   7.969
 1667TP3     H216029   1.942   4.094   7.819
 1668TP3      O16030   2.016   4.206   7.427
 1668TP3     H116031   2.077   4.262   7.379
 1668TP3     H216032   1.956   4.270   7.469
 1669TP3      O16033   3.015   4.542   8.417
 1669TP3     H116034   3.080   4.483   8.372
 1669TP3     H216035   2.993   4.502   8.501
 1670TP3      O16036   2.720   4.165   7.919
 1670TP3     H116037   2.626   4.165   7.950
 1670TP3     H216038   2.770   4.147   8.000
 1671TP3      O16039   2.203   4.321   7.804
 1671TP3     H116040   2.115   4.333   7.762
 1671TP3     H216041   2.232   4.235   7.769
 1672TP3      O16042   2.563   4.327   7.565
 1672TP3     H116043   2.659   4.322   7.588
 1672TP3     H216044   2.555   4.397   7.501
 1673TP3      O16045   3.164   4.089   8.238
 1673TP3     H116046   3.094   4.089   8.307
 1673TP3     H216047   3.114   4.065   8.159
 1674TP3      O16048   2.248   4.898   8.833
 1674TP3     H116049   2.321   4.918   8.896
 1674TP3     H216050   2.171   4.895   8.894
 1675TP3      O16051   2.839   4.431   8.100
 1675TP3     H116052   2.914   4.387   8.057
 1675TP3     H216053   2.833   4.383   8.183
 1676TP3      O16054   2.352   4.056   7.752
 1676TP3     H116055   2.312   3.967   7.752
 1676TP3     H216056   2.425   4.042   7.688
 1677TP3      O16057   2.713   4.268   8.350
 1677TP3     H116058   2.634   4.325   8.351
 1677TP3     H216059   2.770   4.307   8.418
 1678TP3      O16060   3.499   4.817   8.396
 1678TP3     H116061   3.546   4.872   8.330
 1678TP3     H216062   3.410   4.810   8.356
 1679TP3      O16063   3.153   4.175   7.346
 1679TP3     H116064   3.064   4.186   7.306
 1679TP3     H216065   3.183   4.263   7.371
 1680TP3      O16066   2.855   4.933   8.648
 1680TP3     H116067   2.894   4.878   8.715
 1680TP3     H216068   2.902   5.016   8.657
 1681TP3      O16069   3.234   4.378   7.502
 1681TP3     H116070   3.317   4.360   7.551
 1681TP3     H216071   3.250   4.459   7.454
 1682TP3      O16072   2.287   4.836   8.102
 1682TP3     H116073   2.349   4.824   8.028
 1682TP3     H216074   2.292   4.752   8.149
 1683TP3      O16075   1.981   4.674   8.627
 1683TP3     H116076   1.993   4.627   8.712
 1683TP3     H216077   1.920   4.616   8.578
 1684TP3      O16078   2.679   4.624   8.842
 1684TP3     H116079   2.648   4.593   8.755
 1684TP3     H216080   2.772   4.593   8.837
 1685TP3      O16081   3.151   5.187   8.631
 1685TP3     H116082   3.057   5.183   8.612
 1685TP3     H216083   3.146   5.188   8.729
 1686TP3      O16084   3.722   4.967   8.756
 1686TP3     H116085   3.632   4.990   8.722
 1686TP3     H216086   3.773   4.965   8.672
 1687TP3      O16087   3.530   5.259   7.509
 1687TP3     H116088   3.517   5.170   7.545
 1687TP3     H216089   3.576   5.246   7.425
 1688TP3      O16090   3.273   4.751   8.226
 1688TP3     H116091   3.179   4.733   8.212
 1688TP3     H216092   3.312   4.676   8.176
 1689TP3      O16093   2.515   5.184   7.844
 1689TP3     H116094   2.564   5.262   7.811
 1689TP3     H216095   2.430   5.195   7.798
 1690TP3      O16096   2.665   4.946   7.799
 1690TP3     H116097   2.627   5.036   7.796
 1690TP3     H216098   2.591   4.896   7.837
 1691TP3      O16099   2.707   5.358   8.426
 1691TP3     H116100   2.749   5.444   8.411
 1691TP3     H216101   2.768   5.316   8.491
 1692TP3      O16102   2.536   5.426   7.728
 1692TP3     H116103   2.441   5.434   7.749
 1692TP3     H216104   2.570   5.509   7.768
 1693TP3      O16105   3.035   4.981   8.366
 1693TP3     H116106   3.018   4.967   8.461
 1693TP3     H216107   3.101   4.908   8.359
 1694TP3      O16108   3.288   5.059   7.293
 1694TP3     H116109   3.323   5.022   7.377
 1694TP3     H216110   3.195   5.050   7.310
 1695TP3      O16111   3.340   5.412   8.633
 1695TP3     H116112   3.264   5.365   8.593
 1695TP3     H216113   3.346   5.492   8.579
 1696TP3      O16114   3.758  -0.035   7.340
 1696TP3     H116115   3.818   0.027   7.299
 1696TP3     H216116   3.668   0.004   7.339
 1697TP3      O16117   2.149   4.147   8.581
 1697TP3     H116118   2.059   4.183   8.580
 1697TP3     H216119   2.137   4.061   8.625
 1698TP3      O16120   3.375   4.938   7.530
 1698TP3     H116121   3.349   4.854   7.573
 1698TP3     H216122   3.472   4.934   7.536
 1699TP3      O16123   2.116   5.319   8.427
 1699TP3     H116124   2.151   5.228   8.425
 1699TP3     H216125   2.140   5.349   8.515
 1700TP3      O16126   2.688   5.165   7.127
 1700TP3     H116127   2.712   5.079   7.096
 1700TP3     H216128   2.654   5.150   7.218
 1701TP3      O16129   2.594   5.127   7.393
 1701TP3     H116130   2.601   5.087   7.480
 1701TP3     H216131   2.584   5.223   7.415
 1702TP3      O16132   3.023   4.128   8.482
 1702TP3     H116133   3.098   4.130   8.542
 1702TP3     H216134   2.984   4.040   8.500
 1703TP3      O16135   3.098   4.076   7.588
 1703TP3     H116136   3.119   4.121   7.503
 1703TP3     H216137   3.149   4.129   7.651
 1704TP3      O16138   2.861   5.322   7.510
 1704TP3     H116139   2.771   5.352   7.486
 1704TP3     H216140   2.905   5.325   7.424
 1705TP3      O16141   2.805   4.268   7.666
 1705TP3     H116142   2.890   4.318   7.669
 1705TP3     H216143   2.790   4.242   7.760
 1706TP3      O16144   2.872   4.354   8.593
 1706TP3     H116145   2.883   4.416   8.668
 1706TP3     H216146   2.947   4.293   8.595
 1707TP3      O16147   2.903   3.962   7.752
 1707TP3     H116148   2.867   4.028   7.814
 1707TP3     H216149   2.972   4.016   7.708
 1708TP3      O16150   2.601   5.392   7.482
 1708TP3     H116151   2.618   5.469   7.426
 1708TP3     H216152   2.569   5.428   7.566
 1709TP3      O16153   2.462   4.072   7.454
 1709TP3     H116154   2.471   4.166   7.473
 1709TP3     H216155   2.556   4.044   7.452
 1710TP3      O16156   3.492   4.145   8.676
 1710TP3     H116157   3.398   4.172   8.660
 1710TP3     H216158   3.521   4.135   8.583
 1711TP3      O16159   3.385   4.518   8.080
 1711TP3     H116160   3.292   4.507   8.050
 1711TP3     H216161   3.407   4.438   8.131
 1712TP3      O16162   3.454   5.440   8.270
 1712TP3     H116163   3.440   5.488   8.185
 1712TP3     H216164   3.551   5.449   8.270
 1713TP3      O16165   2.207   3.861   8.124
 1713TP3     H116166   2.192   3.862   8.026
 1713TP3     H216167   2.170   3.774   8.147
 1714TP3      O16168   2.111   5.244   7.735
 1714TP3     H116169   2.019   5.275   7.728
 1714TP3     H216170   2.144   5.284   7.654
 1715TP3      O16171   2.019   5.488   8.860
 1715TP3     H116172   2.085   5.475   8.932
 1715TP3     H216173   1.989   5.398   8.839
 1716TP3      O16174   2.497   5.393   9.027
 1716TP3     H116175   2.585   5.363   9.050
 1716TP3     H216176   2.492   5.367   8.932
 1717TP3      O16177   2.915   5.218   7.268
 1717TP3     H116178   2.825   5.252   7.243
 1717TP3     H216179   2.966   5.270   7.205
 1718TP3      O16180   3.133   5.245   8.898
 1718TP3     H116181   3.109   5.155   8.927
 1718TP3     H216182   3.217   5.261   8.944
 1719TP3      O16183   2.006   4.894   8.958
 1719TP3     H116184   2.025   4.803   8.929
 1719TP3     H216185   1.939   4.923   8.893
 1720TP3      O16186   2.452   4.929   7.159
 1720TP3     H116187   2.464   4.863   7.227
 1720TP3     H216188   2.532   4.926   7.109
 1721TP3      O16189   2.679   4.896   8.891
 1721TP3     H116190   2.660   4.932   8.802
 1721TP3     H216191   2.690   4.799   8.876
 1722TP3      O16192   3.298   4.944   8.742
 1722TP3     H116193   3.359   4.944   8.666
 1722TP3     H216194   3.217   4.933   8.688
 1723TP3      O16195   2.110   4.619   8.900
 1723TP3     H116196   2.153   4.533   8.895
 1723TP3     H216197   2.091   4.626   8.996
 1724TP3      O16198   2.571   4.726   7.407
 1724TP3     H116199   2.524   4.682   7.480
 1724TP3     H216200   2.582   4.659   7.341
 1725TP3      O16201   2.494   4.512   8.629
 1725TP3     H116202   2.437   4.586   8.654
 1725TP3     H216203   2.541   4.550   8.554
 1726TP3      O16204   3.009   4.772   8.989
 1726TP3     H116205   3.097   4.756   8.953
 1726TP3     H216206   2.988   4.688   9.032
 1727TP3      O16207   2.539   4.254   8.731
 1727TP3     H116208   2.550   4.183   8.665
 1727TP3     H216209   2.535   4.335   8.677
 1728TP3      O16210   2.579   4.086   8.497
 1728TP3     H116211   2.628   4.135   8.426
 1728TP3     H216212   2.488   4.084   8.459
 1729TP3      O16213   2.726   4.641   8.517
 1729TP3     H116214   2.807   4.627   8.467
 1729TP3     H216215   2.696   4.728   8.486
 1730TP3      O16216   3.168   4.406   9.007
 1730TP3     H116217   3.193   4.312   9.008
 1730TP3     H216218   3.252   4.454   9.011
 1731TP3      O16219   3.308   4.689   8.841
 1731TP3     H116220   3.278   4.764   8.784
 1731TP3     H216221   3.404   4.696   8.818
 1732TP3      O16222   2.386   4.371   8.937
 1732TP3     H116223   2.307   4.318   8.916
 1732TP3     H216224   2.446   4.342   8.865
 1733TP3      O16225   2.655   3.829   8.528
 1733TP3     H116226   2.634   3.926   8.524
 1733TP3     H216227   2.578   3.795   8.480
 1734TP3      O16228   2.783   4.267   8.904
 1734TP3     H116229   2.747   4.242   8.991
 1734TP3     H216230   2.709   4.246   8.844
 1735TP3      O16231   3.053   4.180   8.808
 1735TP3     H116232   2.958   4.189   8.822
 1735TP3     H216233   3.079   4.116   8.878
 1736TP3      O16234   3.216   4.059   8.993
 1736TP3     H116235   3.213   3.960   8.994
 1736TP3     H216236   3.188   4.078   9.085
 1737TP3      O16237   2.190   4.174   8.908
 1737TP3     H116238   2.210   4.095   8.854
 1737TP3     H216239   2.177   4.134   8.997
 1738TP3      O16240   2.681   3.775   8.804
 1738TP3     H116241   2.750   3.705   8.801
 1738TP3     H216242   2.664   3.785   8.708
 1739TP3      O16243   2.713   3.928   9.020
 1739TP3     H116244   2.694   3.878   8.937
 1739TP3     H216245   2.662   4.010   9.005
 1740TP3      O16246   1.981   5.420   7.960
 1740TP3     H116247   1.929   5.344   7.986
 1740TP3     H216248   2.001   5.460   8.046
 1741TP3      O16249   3.724  -0.006   8.254
 1741TP3     H116250   3.744  -0.007   8.350
 1741TP3     H216251   3.803   0.040   8.223
 1742TP3      O16252   3.716   5.429   8.529
 1742TP3     H116253   3.647   5.361   8.511
 1742TP3     H216254   3.744   5.408   8.620
 1743TP3      O16255   3.535   5.042   9.026
 1743TP3     H116256   3.442   5.046   9.058
 1743TP3     H216257   3.572   5.126   9.060
 1744TP3      O16258   3.661   4.869   7.557
 1744TP3     H116259   3.744   4.914   7.578
 1744TP3     H216260   3.660   4.804   7.629
 1745TP3      O16261   3.701   4.682   7.750
 1745TP3     H116262   3.619   4.643   7.790
 1745TP3     H216263   3.758   4.700   7.828
 1746TP3      O16264   3.671   4.956   8.249
 1746TP3     H116265   3.750   4.916   8.210
 1746TP3     H216266   3.687   5.051   8.233
 1747TP3      O16267   3.524   5.242   8.486
 1747TP3     H116268   3.451   5.283   8.536
 1747TP3     H216269   3.473   5.211   8.407
 1748TP3      O16270   3.491   4.527   7.810
 1748TP3     H116271   3.458   4.436   7.805
 1748TP3     H216272   3.452   4.554   7.896
 1749TP3      O16273   1.983   4.746   8.218
 1749TP3     H116274   1.996   4.734   8.122
 1749TP3     H216275   2.073   4.723   8.251
 1750TP3      O16276   3.574   4.729   8.791
 1750TP3     H116277   3.638   4.656   8.789
 1750TP3     H216278   3.627   4.809   8.777
 1751TP3      O16279   3.711   4.511   8.859
 1751TP3     H116280   3.630   4.485   8.812
 1751TP3     H216281   3.780   4.451   8.826
 1752TP3      O16282   3.447   4.288   7.649
 1752TP3     H116283   3.476   4.195   7.666
 1752TP3     H216284   3.528   4.332   7.623
 1753TP3      O16285   3.522   4.332   8.204
 1753TP3     H116286   3.613   4.368   8.198
 1753TP3     H216287   3.498   4.361   8.293
 1754TP3      O16288   3.523   4.422   8.490
 1754TP3     H116289   3.430   4.448   8.507
 1754TP3     H216290   3.560   4.506   8.453
 1755TP3      O16291   1.948   4.271   8.832
 1755TP3     H116292   2.041   4.248   8.853
 1755TP3     H216293   1.900   4.189   8.856
 1756TP3      O16294   3.760   3.837   9.012
 1756TP3     H116295   3.783   3.761   8.955
 1756TP3     H216296   3.760   3.910   8.947
 1757TP3      O16297   3.517   4.019   7.654
 1757TP3     H116298   3.542   3.983   7.742
 1757TP3     H216299   3.455   3.951   7.619
 1758TP3      O16300   2.065   4.103   8.118
 1758TP3     H116301   2.109   4.018   8.139
 1758TP3     H216302   2.127   4.169   8.151
 1759TP3      O16303   1.893   4.406   8.218
 1759TP3     H116304   1.949   4.376   8.144
 1759TP3     H216305   1.945   4.484   8.245
 1760TP3      O16306   3.689   4.047   8.845
 1760TP3     H116307   3.593   4.054   8.833
 1760TP3     H216308   3.704   3.984   8.773
 1761TP3      O16309   3.706   4.018   7.320
 1761TP3     H116310   3.738   3.961   7.246
 1761TP3     H216311   3.771   4.088   7.310
 1762TP3      O16312   1.924   4.044   7.634
 1762TP3     H116313   1.832   4.038   7.606
 1762TP3     H216314   1.968   4.067   7.551
 1763TP3      O16315   1.923   3.892   8.455
 1763TP3     H116316   1.857   3.873   8.523
 1763TP3     H216317   1.878   3.958   8.400
 1764TP3      O16318   2.149   5.217   8.862
 1764TP3     H116319   2.062   5.227   8.821
 1764TP3     H216320   2.126   5.203   8.955
 1765TP3      O16321   2.429   5.307   8.497
 1765TP3     H116322   2.398   5.397   8.481
 1765TP3     H216323   2.522   5.316   8.467
 1766TP3      O16324   2.897   5.432   8.790
 1766TP3     H116325   2.892   5.416   8.888
 1766TP3     H216326   2.980   5.480   8.786
 1767TP3      O16327   3.607   3.844   8.630
 1767TP3     H116328   3.520   3.869   8.594
 1767TP3     H216329   3.617   3.756   8.587
 1768TP3      O16330   3.124   5.468   8.421
 1768TP3     H116331   3.038   5.506   8.403
 1768TP3     H216332   3.182   5.544   8.407
 1769TP3      O16333   2.113   5.459   8.202
 1769TP3     H116334   2.110   5.428   8.296
 1769TP3     H216335   2.200   5.427   8.169
 1770TP3      O16336   2.323   5.361   8.060
 1770TP3     H116337   2.319   5.265   8.080
 1770TP3     H216338   2.411   5.384   8.096
 1771TP3      O16339   2.572   5.386   8.151
 1771TP3     H116340   2.604   5.296   8.129
 1771TP3     H216341   2.596   5.394   8.245
 1772TP3      O16342   2.940   3.981   8.064
 1772TP3     H116343   2.866   3.921   8.086
 1772TP3     H216344   2.993   3.931   8.001
 1773TP3      O16345   3.455   3.784   8.056
 1773TP3     H116346   3.515   3.848   8.009
 1773TP3     H216347   3.367   3.826   8.042
 1774TP3      O16348   3.620   3.918   7.887
 1774TP3     H116349   3.686   3.857   7.847
 1774TP3     H216350   3.675   3.998   7.904
 1775TP3      O16351   2.178   3.848   7.850
 1775TP3     H116352   2.100   3.836   7.791
 1775TP3     H216353   2.220   3.760   7.837
 1776TP3      O16354   2.623   3.826   7.826
 1776TP3     H116355   2.705   3.876   7.809
 1776TP3     H216356   2.621   3.822   7.921
 1777TP3      O16357   3.198   3.842   7.984
 1777TP3     H116358   3.192   3.852   7.888
 1777TP3     H216359   3.159   3.753   7.996
 1778TP3      O16360   3.316   3.844   7.543
 1778TP3     H116361   3.241   3.907   7.538
 1778TP3     H216362   3.276   3.763   7.581
 1779TP3      O16363   2.018   5.407   7.544
 1779TP3     H116364   1.981   5.393   7.456
 1779TP3     H216365   2.057   5.495   7.531
 1780TP3      O16366   2.729   4.049   7.515
 1780TP3     H116367   2.762   3.985   7.579
 1780TP3     H216368   2.758   4.132   7.557
 1781TP3      O16369   3.602   5.490   7.639
 1781TP3     H116370   3.583   5.410   7.586
 1781TP3     H216371   3.594   5.561   7.574
 1782TP3      O16372   2.162   3.904   8.789
 1782TP3     H116373   2.119   3.823   8.820
 1782TP3     H216374   2.251   3.895   8.830
 1783TP3      O16375   2.361   3.843   8.956
 1783TP3     H116376   2.451   3.809   8.938
 1783TP3     H216377   2.323   3.764   9.000
 1784TP3      O16378   2.241   5.519   7.214
 1784TP3     H116379   2.200   5.529   7.302
 1784TP3     H216380   2.296   5.441   7.228
 1785TP3      O16381   3.205   3.801   9.002
 1785TP3     H116382   3.206   3.722   9.059
 1785TP3     H216383   3.275   3.771   8.939
 1786TP3      O16384   3.518   5.363   8.840
 1786TP3     H116385   3.448   5.361   8.771
 1786TP3     H216386   3.531   5.458   8.844
 1787TP3      O16387   4.967   4.765   7.830
 1787TP3     H116388   4.968   4.863   7.825
 1787TP3     H216389   4.897   4.744   7.765
 1788TP3      O16390   4.856   4.683   8.181
 1788TP3     H116391   4.860   4.620   8.255
 1788TP3     H216392   4.815   4.632   8.109
 1789TP3      O16393   4.091   4.657   8.329
 1789TP3     H116394   4.099   4.586   8.395
 1789TP3     H216395   4.165   4.713   8.356
 1790TP3      O16396   5.214   4.992   8.007
 1790TP3     H116397   5.189   4.911   8.054
 1790TP3     H216398   5.236   5.050   8.082
 1791TP3      O16399   4.182   5.102   8.175
 1791TP3     H116400   4.154   5.011   8.151
 1791TP3     H216401   4.278   5.086   8.180
 1792TP3      O16402   3.853   4.453   7.711
 1792TP3     H116403   3.811   4.539   7.733
 1792TP3     H216404   3.777   4.396   7.699
 1793TP3      O16405   3.918   4.677   7.946
 1793TP3     H116406   3.949   4.596   7.992
 1793TP3     H216407   3.991   4.698   7.886
 1794TP3      O16408   4.907   5.456   8.042
 1794TP3     H116409   4.981   5.399   8.010
 1794TP3     H216410   4.918   5.452   8.138
 1795TP3      O16411   4.693   4.929   8.235
 1795TP3     H116412   4.723   4.870   8.165
 1795TP3     H216413   4.779   4.945   8.280
 1796TP3      O16414   5.002   4.373   8.263
 1796TP3     H116415   5.030   4.280   8.267
 1796TP3     H216416   5.003   4.386   8.166
 1797TP3      O16417   4.318   4.182   7.977
 1797TP3     H116418   4.335   4.264   7.925
 1797TP3     H216419   4.282   4.124   7.906
 1798TP3      O16420   5.094   4.193   7.826
 1798TP3     H116421   5.164   4.156   7.885
 1798TP3     H216422   5.149   4.249   7.770
 1799TP3      O16423   3.985   4.428   8.054
 1799TP3     H116424   4.049   4.374   8.103
 1799TP3     H216425   4.000   4.394   7.965
 1800TP3      O16426   4.497   4.581   7.991
 1800TP3     H116427   4.567   4.523   8.024
 1800TP3     H216428   4.450   4.519   7.932
 1801TP3      O16429   4.217   4.074   8.382
 1801TP3     H116430   4.187   4.132   8.308
 1801TP3     H216431   4.151   4.098   8.451
 1802TP3      O16432   4.933   5.021   7.739
 1802TP3     H116433   4.913   5.000   7.646
 1802TP3     H216434   4.909   5.116   7.744
 1803TP3      O16435   4.463   4.841   8.400
 1803TP3     H116436   4.396   4.905   8.431
 1803TP3     H216437   4.534   4.900   8.371
 1804TP3      O16438   5.284   4.120   8.009
 1804TP3     H116439   5.249   4.053   8.068
 1804TP3     H216440   5.343   4.170   8.068
 1805TP3      O16441   4.173   4.259   8.186
 1805TP3     H116442   4.235   4.328   8.218
 1805TP3     H216443   4.224   4.221   8.111
 1806TP3      O16444   4.312   5.041   8.488
 1806TP3     H116445   4.307   5.134   8.457
 1806TP3     H216446   4.222   5.031   8.526
 1807TP3      O16447   3.919   5.000   7.559
 1807TP3     H116448   3.886   5.046   7.480
 1807TP3     H216449   3.924   5.073   7.625
 1808TP3      O16450   5.270   5.166   8.254
 1808TP3     H116451   5.173   5.179   8.259
 1808TP3     H216452   5.303   5.255   8.233
 1809TP3      O16453   5.308   4.007   8.371
 1809TP3     H116454   5.223   4.056   8.370
 1809TP3     H216455   5.357   4.059   8.308
 1810TP3      O16456   4.600   3.809   8.127
 1810TP3     H116457   4.582   3.713   8.118
 1810TP3     H216458   4.513   3.841   8.161
 1811TP3      O16459   5.105   5.345   7.899
 1811TP3     H116460   5.143   5.267   7.851
 1811TP3     H216461   5.162   5.416   7.869
 1812TP3      O16462   5.209   5.129   7.745
 1812TP3     H116463   5.184   5.054   7.689
 1812TP3     H216464   5.230   5.085   7.830
 1813TP3      O16465   5.370   4.998   8.613
 1813TP3     H116466   5.404   4.935   8.546
 1813TP3     H216467   5.401   5.082   8.572
 1814TP3      O16468   4.833   4.686   7.581
 1814TP3     H116469   4.767   4.747   7.541
 1814TP3     H216470   4.904   4.693   7.515
 1815TP3      O16471   4.843   4.541   7.292
 1815TP3     H116472   4.922   4.540   7.348
 1815TP3     H216473   4.860   4.473   7.227
 1816TP3      O16474   5.167   4.691   7.668
 1816TP3     H116475   5.106   4.733   7.733
 1816TP3     H216476   5.235   4.651   7.724
 1817TP3      O16477   5.174   4.530   8.585
 1817TP3     H116478   5.165   4.610   8.638
 1817TP3     H216479   5.111   4.552   8.514
 1818TP3      O16480   4.340   4.772   7.868
 1818TP3     H116481   4.309   4.735   7.782
 1818TP3     H216482   4.406   4.705   7.898
 1819TP3      O16483   4.477   5.107   8.136
 1819TP3     H116484   4.478   5.066   8.048
 1819TP3     H216485   4.556   5.067   8.178
 1820TP3      O16486   4.373   4.646   8.235
 1820TP3     H116487   4.423   4.653   8.151
 1820TP3     H216488   4.415   4.715   8.291
 1821TP3      O16489   5.007   5.206   8.302
 1821TP3     H116490   4.987   5.277   8.365
 1821TP3     H216491   4.988   5.123   8.351
 1822TP3      O16492   4.471   5.096   8.704
 1822TP3     H116493   4.421   5.162   8.755
 1822TP3     H216494   4.410   5.075   8.629
 1823TP3      O16495   5.078   4.624   7.428
 1823TP3     H116496   5.114   4.646   7.518
 1823TP3     H216497   5.111   4.698   7.374
 1824TP3      O16498   4.169   4.708   8.609
 1824TP3     H116499   4.178   4.774   8.680
 1824TP3     H216500   4.073   4.710   8.598
 1825TP3      O16501   4.842   5.301   7.788
 1825TP3     H116502   4.881   5.332   7.871
 1825TP3     H216503   4.779   5.370   7.763
 1826TP3      O16504   4.288   5.297   8.770
 1826TP3     H116505   4.283   5.283   8.673
 1826TP3     H216506   4.199   5.268   8.798
 1827TP3      O16507   4.239   4.676   7.626
 1827TP3     H116508   4.208   4.752   7.573
 1827TP3     H216509   4.173   4.608   7.608
 1828TP3      O16510   3.855   4.921   8.521
 1828TP3     H116511   3.807   4.913   8.437
 1828TP3     H216512   3.861   4.825   8.543
 1829TP3      O16513   3.828   5.194   8.195
 1829TP3     H116514   3.924   5.185   8.187
 1829TP3     H216515   3.818   5.279   8.242
 1830TP3      O16516   4.734   5.217   8.634
 1830TP3     H116517   4.751   5.289   8.700
 1830TP3     H216518   4.655   5.173   8.671
 1831TP3      O16519   4.166   5.432   7.802
 1831TP3     H116520   4.177   5.410   7.897
 1831TP3     H216521   4.073   5.408   7.789
 1832TP3      O16522   5.173   5.471   7.348
 1832TP3     H116523   5.139   5.415   7.277
 1832TP3     H216524   5.104   5.465   7.416
 1833TP3      O16525   5.024   5.472   7.599
 1833TP3     H116526   4.945   5.501   7.645
 1833TP3     H216527   5.065   5.411   7.663
 1834TP3      O16528   5.348   4.421   8.804
 1834TP3     H116529   5.300   4.447   8.724
 1834TP3     H216530   5.375   4.330   8.782
 1835TP3      O16531   4.078   5.052   8.611
 1835TP3     H116532   4.092   5.014   8.700
 1835TP3     H216533   3.990   5.016   8.586
 1836TP3      O16534   4.347   3.902   8.201
 1836TP3     H116535   4.257   3.885   8.166
 1836TP3     H216536   4.329   3.981   8.255
 1837TP3      O16537   4.813   3.860   8.537
 1837TP3     H116538   4.850   3.820   8.618
 1837TP3     H216539   4.716   3.855   8.551
 1838TP3      O16540   5.142   4.255   8.627
 1838TP3     H116541   5.087   4.229   8.704
 1838TP3     H216542   5.121   4.349   8.611
 1839TP3      O16543   4.354   4.396   8.336
 1839TP3     H116544   4.280   4.401   8.399
 1839TP3     H216545   4.351   4.486   8.294
 1840TP3      O16546   4.354   4.401   7.818
 1840TP3     H116547   4.258   4.383   7.807
 1840TP3     H216548   4.387   4.378   7.729
 1841TP3      O16549   4.900   4.450   7.687
 1841TP3     H116550   4.867   4.539   7.659
 1841TP3     H216551   4.975   4.436   7.627
 1842TP3      O16552   4.807   4.480   8.833
 1842TP3     H116553   4.759   4.399   8.864
 1842TP3     H216554   4.890   4.474   8.883
 1843TP3      O16555   5.009   4.409   7.982
 1843TP3     H116556   4.980   4.467   7.908
 1843TP3     H216557   5.017   4.325   7.934
 1844TP3      O16558   4.115   4.415   8.493
 1844TP3     H116559   4.135   4.457   8.578
 1844TP3     H216560   4.075   4.331   8.521
 1845TP3      O16561   3.788   4.124   7.904
 1845TP3     H116562   3.858   4.119   7.973
 1845TP3     H216563   3.831   4.092   7.822
 1846TP3      O16564   3.908   4.210   7.441
 1846TP3     H116565   3.963   4.258   7.376
 1846TP3     H216566   3.832   4.265   7.459
 1847TP3      O16567   4.923   4.563   8.428
 1847TP3     H116568   4.967   4.494   8.374
 1847TP3     H216569   4.877   4.510   8.495
 1848TP3      O16570   4.607   4.168   7.921
 1848TP3     H116571   4.513   4.165   7.948
 1848TP3     H216572   4.654   4.139   8.001
 1849TP3      O16573   4.090   4.319   7.801
 1849TP3     H116574   4.001   4.329   7.762
 1849TP3     H216575   4.119   4.232   7.767
 1850TP3      O16576   4.450   4.325   7.561
 1850TP3     H116577   4.544   4.328   7.584
 1850TP3     H216578   4.439   4.394   7.494
 1851TP3      O16579   5.043   4.087   8.242
 1851TP3     H116580   4.974   4.090   8.311
 1851TP3     H216581   4.992   4.058   8.164
 1852TP3      O16582   4.133   4.896   8.834
 1852TP3     H116583   4.204   4.919   8.897
 1852TP3     H216584   4.055   4.897   8.894
 1853TP3      O16585   4.733   4.438   8.106
 1853TP3     H116586   4.802   4.389   8.059
 1853TP3     H216587   4.719   4.384   8.184
 1854TP3      O16588   4.234   4.055   7.749
 1854TP3     H116589   4.200   3.964   7.753
 1854TP3     H216590   4.313   4.042   7.695
 1855TP3      O16591   4.598   4.269   8.349
 1855TP3     H116592   4.518   4.324   8.355
 1855TP3     H216593   4.656   4.309   8.417
 1856TP3      O16594   4.653   4.888   7.517
 1856TP3     H116595   4.572   4.843   7.484
 1856TP3     H216596   4.629   4.915   7.608
 1857TP3      O16597   5.380   4.820   8.398
 1857TP3     H116598   5.431   4.857   8.326
 1857TP3     H216599   5.292   4.811   8.356
 1858TP3      O16600   4.807   4.924   8.643
 1858TP3     H116601   4.771   4.878   8.719
 1858TP3     H216602   4.782   5.016   8.657
 1859TP3      O16603   5.116   4.362   7.490
 1859TP3     H116604   5.198   4.351   7.542
 1859TP3     H216605   5.124   4.453   7.453
 1860TP3      O16606   4.169   4.836   8.097
 1860TP3     H116607   4.232   4.824   8.023
 1860TP3     H216608   4.178   4.753   8.148
 1861TP3      O16609   4.867   5.040   7.444
 1861TP3     H116610   4.824   5.126   7.457
 1861TP3     H216611   4.792   4.978   7.445
 1862TP3      O16612   3.863   4.675   8.630
 1862TP3     H116613   3.880   4.626   8.712
 1862TP3     H216614   3.808   4.616   8.575
 1863TP3      O16615   4.570   4.629   8.839
 1863TP3     H116616   4.533   4.591   8.757
 1863TP3     H216617   4.661   4.593   8.836
 1864TP3      O16618   5.032   5.171   8.638
 1864TP3     H116619   4.939   5.186   8.617
 1864TP3     H216620   5.032   5.194   8.733
 1865TP3      O16621   5.437   5.254   7.507
 1865TP3     H116622   5.390   5.175   7.534
 1865TP3     H216623   5.458   5.235   7.414
 1866TP3      O16624   5.153   4.742   8.236
 1866TP3     H116625   5.059   4.727   8.215
 1866TP3     H216626   5.195   4.674   8.180
 1867TP3      O16627   4.405   5.182   7.847
 1867TP3     H116628   4.450   5.263   7.819
 1867TP3     H216629   4.319   5.195   7.804
 1868TP3      O16630   4.548   4.943   7.788
 1868TP3     H116631   4.514   5.035   7.792
 1868TP3     H216632   4.478   4.895   7.837
 1869TP3      O16633   4.592   5.359   8.425
 1869TP3     H116634   4.632   5.446   8.410
 1869TP3     H216635   4.653   5.318   8.490
 1870TP3      O16636   4.426   5.421   7.729
 1870TP3     H116637   4.330   5.431   7.750
 1870TP3     H216638   4.458   5.507   7.765
 1871TP3      O16639   4.934   4.958   8.389
 1871TP3     H116640   4.911   4.946   8.484
 1871TP3     H216641   4.999   4.888   8.373
 1872TP3      O16642   5.227   5.414   8.636
 1872TP3     H116643   5.152   5.367   8.596
 1872TP3     H216644   5.235   5.493   8.580
 1873TP3      O16645   4.036   4.150   8.583
 1873TP3     H116646   3.944   4.179   8.572
 1873TP3     H216647   4.026   4.061   8.621
 1874TP3      O16648   4.001   5.318   8.427
 1874TP3     H116649   4.035   5.227   8.426
 1874TP3     H216650   4.026   5.349   8.515
 1875TP3      O16651   4.125   4.853   7.444
 1875TP3     H116652   4.049   4.892   7.492
 1875TP3     H216653   4.178   4.931   7.428
 1876TP3      O16654   4.904   4.123   8.484
 1876TP3     H116655   4.978   4.133   8.544
 1876TP3     H216656   4.870   4.034   8.506
 1877TP3      O16657   4.998   4.073   7.571
 1877TP3     H116658   4.999   4.144   7.506
 1877TP3     H216659   5.040   4.119   7.647
 1878TP3      O16660   4.752   5.298   7.472
 1878TP3     H116661   4.660   5.330   7.464
 1878TP3     H216662   4.797   5.339   7.399
 1879TP3      O16663   4.701   4.253   7.666
 1879TP3     H116664   4.776   4.316   7.670
 1879TP3     H216665   4.674   4.241   7.760
 1880TP3      O16666   4.764   4.360   8.586
 1880TP3     H116667   4.769   4.412   8.669
 1880TP3     H216668   4.827   4.288   8.597
 1881TP3      O16669   4.783   3.960   7.747
 1881TP3     H116670   4.751   4.021   7.816
 1881TP3     H216671   4.857   4.015   7.711
 1882TP3      O16672   4.497   5.405   7.463
 1882TP3     H116673   4.493   5.489   7.418
 1882TP3     H216674   4.457   5.423   7.551
 1883TP3      O16675   4.355   4.071   7.424
 1883TP3     H116676   4.350   4.159   7.465
 1883TP3     H216677   4.446   4.048   7.451
 1884TP3      O16678   5.377   4.129   8.662
 1884TP3     H116679   5.289   4.174   8.660
 1884TP3     H216680   5.411   4.157   8.576
 1885TP3      O16681   5.235   4.529   8.071
 1885TP3     H116682   5.155   4.484   8.037
 1885TP3     H216683   5.276   4.456   8.122
 1886TP3      O16684   5.350   5.431   8.272
 1886TP3     H116685   5.329   5.487   8.192
 1886TP3     H216686   5.444   5.448   8.274
 1887TP3      O16687   4.092   3.861   8.122
 1887TP3     H116688   4.078   3.861   8.025
 1887TP3     H216689   4.055   3.773   8.146
 1888TP3      O16690   3.987   5.231   7.725
 1888TP3     H116691   3.901   5.276   7.727
 1888TP3     H216692   4.028   5.289   7.659
 1889TP3      O16693   3.905   5.488   8.860
 1889TP3     H116694   3.970   5.475   8.932
 1889TP3     H216695   3.875   5.398   8.839
 1890TP3      O16696   4.383   5.393   9.027
 1890TP3     H116697   4.471   5.363   9.050
 1890TP3     H216698   4.378   5.367   8.932
 1891TP3      O16699   5.017   5.246   8.901
 1891TP3     H116700   4.995   5.155   8.930
 1891TP3     H216701   5.102   5.263   8.947
 1892TP3      O16702   3.893   4.897   8.958
 1892TP3     H116703   3.912   4.806   8.928
 1892TP3     H216704   3.822   4.922   8.895
 1893TP3      O16705   4.569   4.896   8.889
 1893TP3     H116706   4.536   4.931   8.804
 1893TP3     H216707   4.573   4.798   8.877
 1894TP3      O16708   5.133   4.879   8.638
 1894TP3     H116709   5.217   4.932   8.638
 1894TP3     H216710   5.071   4.954   8.641
 1895TP3      O16711   3.984   4.614   8.899
 1895TP3     H116712   4.043   4.538   8.897
 1895TP3     H216713   3.978   4.629   8.996
 1896TP3      O16714   4.456   4.732   7.405
 1896TP3     H116715   4.406   4.681   7.468
 1896TP3     H216716   4.489   4.666   7.341
 1897TP3      O16717   4.380   4.512   8.631
 1897TP3     H116718   4.322   4.586   8.653
 1897TP3     H216719   4.426   4.549   8.554
 1898TP3      O16720   4.890   4.771   8.987
 1898TP3     H116721   4.982   4.759   8.958
 1898TP3     H216722   4.873   4.689   9.035
 1899TP3      O16723   5.516   4.780   7.184
 1899TP3     H116724   5.499   4.742   7.098
 1899TP3     H216725   5.522   4.874   7.164
 1900TP3      O16726   4.424   4.253   8.731
 1900TP3     H116727   4.435   4.182   8.664
 1900TP3     H216728   4.417   4.335   8.677
 1901TP3      O16729   4.464   4.087   8.496
 1901TP3     H116730   4.513   4.135   8.425
 1901TP3     H216731   4.373   4.084   8.459
 1902TP3      O16732   4.613   4.642   8.518
 1902TP3     H116733   4.692   4.626   8.466
 1902TP3     H216734   4.579   4.725   8.482
 1903TP3      O16735   5.052   4.409   9.009
 1903TP3     H116736   5.079   4.316   8.998
 1903TP3     H216737   5.138   4.454   9.007
 1904TP3      O16738   5.186   4.698   8.840
 1904TP3     H116739   5.166   4.770   8.776
 1904TP3     H216740   5.280   4.685   8.816
 1905TP3      O16741   4.275   4.372   8.936
 1905TP3     H116742   4.196   4.319   8.915
 1905TP3     H216743   4.334   4.341   8.864
 1906TP3      O16744   4.541   3.831   8.531
 1906TP3     H116745   4.519   3.927   8.523
 1906TP3     H216746   4.469   3.793   8.479
 1907TP3      O16747   4.668   4.267   8.904
 1907TP3     H116748   4.632   4.242   8.991
 1907TP3     H216749   4.594   4.245   8.844
 1908TP3      O16750   4.941   4.178   8.809
 1908TP3     H116751   4.846   4.188   8.823
 1908TP3     H216752   4.966   4.117   8.880
 1909TP3      O16753   5.093   4.039   8.997
 1909TP3     H116754   5.089   3.941   9.001
 1909TP3     H216755   5.071   4.071   9.088
 1910TP3      O16756   4.075   4.173   8.907
 1910TP3     H116757   4.100   4.096   8.853
 1910TP3     H216758   4.068   4.134   8.997
 1911TP3      O16759   4.565   3.777   8.803
 1911TP3     H116760   4.631   3.704   8.802
 1911TP3     H216761   4.552   3.786   8.707
 1912TP3      O16762   4.597   3.930   9.019
 1912TP3     H116763   4.580   3.879   8.937
 1912TP3     H216764   4.543   4.010   9.005
 1913TP3      O16765   3.868   5.420   7.961
 1913TP3     H116766   3.814   5.344   7.988
 1913TP3     H216767   3.886   5.461   8.047
 1914TP3      O16768   5.412   5.040   9.019
 1914TP3     H116769   5.322   5.043   9.057
 1914TP3     H216770   5.450   5.123   9.051
 1915TP3      O16771   5.412   5.232   8.487
 1915TP3     H116772   5.347   5.289   8.530
 1915TP3     H216773   5.366   5.205   8.405
 1916TP3      O16774   5.417   4.393   7.232
 1916TP3     H116775   5.463   4.458   7.178
 1916TP3     H216776   5.457   4.311   7.198
 1917TP3      O16777   5.360   4.536   7.810
 1917TP3     H116778   5.353   4.439   7.808
 1917TP3     H216779   5.337   4.557   7.902
 1918TP3      O16780   3.870   4.746   8.217
 1918TP3     H116781   3.884   4.734   8.121
 1918TP3     H216782   3.959   4.724   8.251
 1919TP3      O16783   5.452   4.728   8.800
 1919TP3     H116784   5.512   4.652   8.794
 1919TP3     H216785   5.499   4.799   8.753
 1920TP3      O16786   5.329   4.290   7.658
 1920TP3     H116787   5.353   4.196   7.676
 1920TP3     H216788   5.406   4.323   7.611
 1921TP3      O16789   5.351   4.329   8.206
 1921TP3     H116790   5.446   4.347   8.184
 1921TP3     H216791   5.365   4.354   8.299
 1922TP3      O16792   5.407   4.416   8.484
 1922TP3     H116793   5.319   4.448   8.510
 1922TP3     H216794   5.450   4.496   8.452
 1923TP3      O16795   3.834   4.267   8.841
 1923TP3     H116796   3.932   4.254   8.850
 1923TP3     H216797   3.804   4.173   8.844
 1924TP3      O16798   5.346   4.019   7.674
 1924TP3     H116799   5.405   3.976   7.738
 1924TP3     H216800   5.320   3.945   7.614
 1925TP3      O16801   3.951   4.104   8.119
 1925TP3     H116802   3.995   4.018   8.138
 1925TP3     H216803   4.014   4.169   8.152
 1926TP3      O16804   3.779   4.407   8.219
 1926TP3     H116805   3.835   4.377   8.145
 1926TP3     H216806   3.831   4.485   8.244
 1927TP3      O16807   3.808   4.045   7.634
 1927TP3     H116808   3.715   4.043   7.608
 1927TP3     H216809   3.853   4.070   7.550
 1928TP3      O16810   3.812   3.894   8.456
 1928TP3     H116811   3.744   3.870   8.522
 1928TP3     H216812   3.764   3.959   8.401
 1929TP3      O16813   4.034   5.211   8.862
 1929TP3     H116814   3.948   5.227   8.821
 1929TP3     H216815   4.011   5.202   8.955
 1930TP3      O16816   4.318   5.305   8.498
 1930TP3     H116817   4.285   5.394   8.481
 1930TP3     H216818   4.410   5.316   8.466
 1931TP3      O16819   4.783   5.430   8.789
 1931TP3     H116820   4.778   5.415   8.887
 1931TP3     H216821   4.864   5.482   8.787
 1932TP3      O16822   5.457   3.829   8.649
 1932TP3     H116823   5.375   3.877   8.622
 1932TP3     H216824   5.443   3.745   8.603
 1933TP3      O16825   5.012   5.466   8.420
 1933TP3     H116826   4.923   5.499   8.403
 1933TP3     H216827   5.063   5.547   8.411
 1934TP3      O16828   3.998   5.460   8.203
 1934TP3     H116829   3.995   5.431   8.298
 1934TP3     H216830   4.085   5.427   8.170
 1935TP3      O16831   4.208   5.359   8.056
 1935TP3     H116832   4.206   5.264   8.079
 1935TP3     H216833   4.295   5.384   8.094
 1936TP3      O16834   4.455   5.387   8.154
 1936TP3     H116835   4.488   5.298   8.128
 1936TP3     H216836   4.482   5.393   8.247
 1937TP3      O16837   4.825   3.984   8.057
 1937TP3     H116838   4.757   3.922   8.091
 1937TP3     H216839   4.879   3.927   8.002
 1938TP3      O16840   5.333   3.793   8.083
 1938TP3     H116841   5.393   3.849   8.028
 1938TP3     H216842   5.246   3.821   8.046
 1939TP3      O16843  -0.022   3.916   7.932
 1939TP3     H116844   0.029   3.859   7.870
 1939TP3     H216845   0.016   4.004   7.921
 1940TP3      O16846   4.064   3.848   7.848
 1940TP3     H116847   3.986   3.836   7.790
 1940TP3     H216848   4.106   3.760   7.837
 1941TP3      O16849   3.957   3.841   7.453
 1941TP3     H116850   3.986   3.891   7.374
 1941TP3     H216851   3.877   3.886   7.481
 1942TP3      O16852   4.508   3.834   7.823
 1942TP3     H116853   4.594   3.876   7.810
 1942TP3     H216854   4.507   3.817   7.917
 1943TP3      O16855   5.081   3.841   7.985
 1943TP3     H116856   5.076   3.856   7.889
 1943TP3     H216857   5.042   3.751   7.995
 1944TP3      O16858   5.205   3.836   7.539
 1944TP3     H116859   5.133   3.900   7.548
 1944TP3     H216860   5.166   3.752   7.573
 1945TP3      O16861   3.919   5.396   7.532
 1945TP3     H116862   3.857   5.398   7.455
 1945TP3     H216863   3.943   5.489   7.528
 1946TP3      O16864   4.119   4.016   7.275
 1946TP3     H116865   4.170   3.959   7.217
 1946TP3     H216866   4.191   4.052   7.330
 1947TP3      O16867   4.616   4.041   7.509
 1947TP3     H116868   4.650   3.987   7.582
 1947TP3     H216869   4.637   4.129   7.546
 1948TP3      O16870   5.483   5.496   7.657
 1948TP3     H116871   5.470   5.416   7.601
 1948TP3     H216872   5.483   5.561   7.585
 1949TP3      O16873   4.045   3.906   8.788
 1949TP3     H116874   4.003   3.824   8.821
 1949TP3     H216875   4.135   3.897   8.829
 1950TP3      O16876   4.245   3.844   8.955
 1950TP3     H116877   4.335   3.811   8.937
 1950TP3     H216878   4.209   3.764   9.001
 1951TP3      O16879   4.130   5.516   7.217
 1951TP3     H116880   4.088   5.525   7.304
 1951TP3     H216881   4.191   5.443   7.228
 1952TP3      O16882   5.089   3.769   8.972
 1952TP3     H116883   5.095   3.724   9.058
 1952TP3     H216884   5.181   3.762   8.940
 1953TP3      O16885   5.399   5.368   8.849
 1953TP3     H116886   5.342   5.355   8.772
 1953TP3     H216887   5.418   5.462   8.834
 1954TP3      O16888   1.068   0.769   9.157
 1954TP3     H116889   1.136   0.782   9.226
 1954TP3     H216890   1.109   0.695   9.109
 1955TP3      O16891   1.294   0.842   9.307
 1955TP3     H116892   1.325   0.876   9.393
 1955TP3     H216893   1.329   0.904   9.239
 1956TP3      O16894   1.650   0.052   9.326
 1956TP3     H116895   1.555   0.046   9.349
 1956TP3     H216896   1.659   0.137   9.281
 1957TP3      O16897   1.794   1.466   9.131
 1957TP3     H116898   1.806   1.560   9.156
 1957TP3     H216899   1.884   1.432   9.151
 1958TP3      O16900   1.332   1.742   9.220
 1958TP3     H116901   1.372   1.669   9.168
 1958TP3     H216902   1.342   1.711   9.311
 1959TP3      O16903   1.451   0.965   9.117
 1959TP3     H116904   1.434   0.942   9.022
 1959TP3     H216905   1.535   1.012   9.105
 1960TP3      O16906   1.000   0.350   9.151
 1960TP3     H116907   0.976   0.346   9.245
 1960TP3     H216908   0.967   0.262   9.124
 1961TP3      O16909   0.674   0.388   9.068
 1961TP3     H116910   0.627   0.345   9.142
 1961TP3     H216911   0.605   0.431   9.016
 1962TP3      O16912   0.118   0.438   9.291
 1962TP3     H116913   0.192   0.492   9.256
 1962TP3     H216914   0.073   0.500   9.348
 1963TP3      O16915   0.556   0.661   9.213
 1963TP3     H116916   0.499   0.627   9.141
 1963TP3     H216917   0.634   0.689   9.161
 1964TP3      O16918   0.877   1.136   9.407
 1964TP3     H116919   0.812   1.075   9.367
 1964TP3     H216920   0.860   1.128   9.501
 1965TP3      O16921   1.269   0.405   9.213
 1965TP3     H116922   1.172   0.417   9.214
 1965TP3     H216923   1.303   0.476   9.272
 1966TP3      O16924   1.344   0.593   9.376
 1966TP3     H116925   1.432   0.585   9.416
 1966TP3     H216926   1.348   0.678   9.329
 1967TP3      O16927   1.094   1.264   9.304
 1967TP3     H116928   1.055   1.348   9.332
 1967TP3     H216929   1.026   1.201   9.335
 1968TP3      O16930   1.847   0.618   9.350
 1968TP3     H116931   1.790   0.586   9.277
 1968TP3     H216932   1.852   0.712   9.323
 1969TP3      O16933   1.653   1.480   9.348
 1969TP3     H116934   1.658   1.413   9.418
 1969TP3     H216935   1.710   1.449   9.276
 1970TP3      O16936   0.209   0.892   9.174
 1970TP3     H116937   0.267   0.951   9.227
 1970TP3     H216938   0.122   0.923   9.199
 1971TP3      O16939   1.414   1.297   9.184
 1971TP3     H116940   1.433   1.270   9.274
 1971TP3     H216941   1.317   1.283   9.183
 1972TP3      O16942   1.849   1.732   9.212
 1972TP3     H116943   1.920   1.797   9.197
 1972TP3     H216944   1.779   1.793   9.240
 1973TP3      O16945   0.821   1.408   9.031
 1973TP3     H116946   0.826   1.330   8.975
 1973TP3     H216947   0.777   1.370   9.111
 1974TP3      O16948   0.693   1.355   9.278
 1974TP3     H116949   0.726   1.309   9.357
 1974TP3     H216950   0.714   1.446   9.305
 1975TP3      O16951   0.329   1.082   9.314
 1975TP3     H116952   0.287   1.115   9.393
 1975TP3     H216953   0.397   1.151   9.299
 1976TP3      O16954   0.938   1.502   9.282
 1976TP3     H116955   0.867   1.562   9.316
 1976TP3     H216956   1.008   1.565   9.261
 1977TP3      O16957   0.721   1.622   9.363
 1977TP3     H116958   0.716   1.692   9.294
 1977TP3     H216959   0.687   1.671   9.439
 1978TP3      O16960   0.570   0.274   9.292
 1978TP3     H116961   0.539   0.358   9.330
 1978TP3     H216962   0.663   0.273   9.322
 1979TP3      O16963   0.406   1.347   9.214
 1979TP3     H116964   0.471   1.407   9.253
 1979TP3     H216965   0.464   1.299   9.151
 1980TP3      O16966   0.245   0.614   9.122
 1980TP3     H116967   0.242   0.707   9.151
 1980TP3     H216968   0.152   0.597   9.101
 1981TP3      O16969   1.022   1.594   9.039
 1981TP3     H116970   0.952   1.529   9.062
 1981TP3     H216971   1.093   1.532   9.016
 1982TP3      O16972   1.478   1.567   9.063
 1982TP3     H116973   1.504   1.491   9.117
 1982TP3     H216974   1.553   1.577   9.000
 1983TP3      O16975   0.563   1.155   9.044
 1983TP3     H116976   0.582   1.082   9.105
 1983TP3     H216977   0.642   1.149   8.987
 1984TP3      O16978   1.120   1.271   9.031
 1984TP3     H116979   1.090   1.273   9.124
 1984TP3     H216980   1.094   1.178   9.007
 1985TP3      O16981   0.684   0.960   9.284
 1985TP3     H116982   0.637   0.902   9.346
 1985TP3     H216983   0.719   0.897   9.217
 1986TP3      O16984   0.794   0.782   9.104
 1986TP3     H116985   0.784   0.783   9.006
 1986TP3     H216986   0.892   0.785   9.114
 1987TP3      O16987   1.725   1.020   9.059
 1987TP3     H116988   1.713   0.981   8.970
 1987TP3     H216989   1.731   1.116   9.033
 1988TP3      O16990   0.776   1.852   9.224
 1988TP3     H116991   0.873   1.858   9.228
 1988TP3     H216992   0.762   1.910   9.147
 1989TP3      O16993   0.135   1.310   9.176
 1989TP3     H116994   0.231   1.329   9.189
 1989TP3     H216995   0.143   1.254   9.096
 1990TP3      O16996   1.847   0.890   9.264
 1990TP3     H116997   1.806   0.935   9.185
 1990TP3     H216998   1.856   0.960   9.331
 1991TP3      O16999   1.684   0.628   9.123
 1991TP3     H117000   1.690   0.688   9.049
 1991TP3     H217001   1.657   0.544   9.078
 1992TP3      O17002   1.601   0.386   9.047
 1992TP3     H117003   1.666   0.329   9.092
 1992TP3     H217004   1.520   0.331   9.055
 1993TP3      O17005   1.811   0.256   9.207
 1993TP3     H117006   1.844   0.190   9.141
 1993TP3     H217007   1.884   0.321   9.215
 1994TP3      O17008   0.171   0.103   9.293
 1994TP3     H117009   0.220   0.174   9.248
 1994TP3     H217010   0.119   0.150   9.358
 1995TP3      O17011   0.140   1.650   9.399
 1995TP3     H117012   0.074   1.661   9.330
 1995TP3     H217013   0.168   1.742   9.414
 1996TP3      O17014   0.352   0.256   9.141
 1996TP3     H117015   0.396   0.189   9.086
 1996TP3     H217016   0.417   0.267   9.213
 1997TP3      O17017   0.846   0.250   9.377
 1997TP3     H117018   0.869   0.196   9.454
 1997TP3     H217019   0.839   0.339   9.419
 1998TP3      O17020   1.046   1.771   9.237
 1998TP3     H117021   1.137   1.798   9.220
 1998TP3     H217022   1.027   1.723   9.153
 1999TP3      O17023   0.338   1.746   9.092
 1999TP3     H117024   0.308   1.773   9.180
 1999TP3     H217025   0.417   1.691   9.110
 2000TP3      O17026   2.953   0.769   9.157
 2000TP3     H117027   3.021   0.782   9.226
 2000TP3     H217028   2.994   0.695   9.109
 2001TP3      O17029   3.180   0.842   9.307
 2001TP3     H117030   3.211   0.876   9.393
 2001TP3     H217031   3.215   0.904   9.239
 2002TP3      O17032   3.536   0.052   9.327
 2002TP3     H117033   3.441   0.045   9.349
 2002TP3     H217034   3.545   0.137   9.281
 2003TP3      O17035   3.680   1.467   9.128
 2003TP3     H117036   3.691   1.559   9.159
 2003TP3     H217037   3.769   1.432   9.150
 2004TP3      O17038   3.218   1.742   9.219
 2004TP3     H117039   3.258   1.669   9.168
 2004TP3     H217040   3.228   1.711   9.311
 2005TP3      O17041   3.336   0.965   9.117
 2005TP3     H117042   3.319   0.942   9.022
 2005TP3     H217043   3.421   1.011   9.105
 2006TP3      O17044   2.888   0.349   9.152
 2006TP3     H117045   2.862   0.346   9.245
 2006TP3     H217046   2.853   0.262   9.124
 2007TP3      O17047   2.564   0.389   9.068
 2007TP3     H117048   2.515   0.345   9.141
 2007TP3     H217049   2.494   0.431   9.016
 2008TP3      O17050   2.015   0.423   9.300
 2008TP3     H117051   2.081   0.482   9.257
 2008TP3     H217052   1.958   0.489   9.342
 2009TP3      O17053   2.443   0.660   9.213
 2009TP3     H117054   2.386   0.627   9.141
 2009TP3     H217055   2.520   0.689   9.162
 2010TP3      O17056   2.764   1.136   9.407
 2010TP3     H117057   2.698   1.076   9.368
 2010TP3     H217058   2.745   1.129   9.502
 2011TP3      O17059   3.155   0.405   9.213
 2011TP3     H117060   3.058   0.417   9.215
 2011TP3     H217061   3.189   0.476   9.272
 2012TP3      O17062   3.229   0.593   9.376
 2012TP3     H117063   3.318   0.585   9.416
 2012TP3     H217064   3.234   0.678   9.329
 2013TP3      O17065   2.980   1.264   9.304
 2013TP3     H117066   2.941   1.348   9.332
 2013TP3     H217067   2.911   1.202   9.334
 2014TP3      O17068   3.732   0.618   9.350
 2014TP3     H117069   3.676   0.586   9.277
 2014TP3     H217070   3.738   0.712   9.323
 2015TP3      O17071   3.538   1.480   9.348
 2015TP3     H117072   3.544   1.413   9.418
 2015TP3     H217073   3.596   1.447   9.277
 2016TP3      O17074   2.097   0.896   9.167
 2016TP3     H117075   2.153   0.951   9.226
 2016TP3     H217076   2.008   0.916   9.200
 2017TP3      O17077   3.299   1.297   9.184
 2017TP3     H117078   3.318   1.270   9.274
 2017TP3     H217079   3.203   1.283   9.183
 2018TP3      O17080   3.734   1.732   9.212
 2018TP3     H117081   3.805   1.797   9.197
 2018TP3     H217082   3.664   1.794   9.240
 2019TP3      O17083   2.706   1.408   9.031
 2019TP3     H117084   2.711   1.330   8.975
 2019TP3     H217085   2.663   1.370   9.111
 2020TP3      O17086   2.579   1.356   9.277
 2020TP3     H117087   2.612   1.310   9.356
 2020TP3     H217088   2.596   1.447   9.306
 2021TP3      O17089   2.218   1.083   9.313
 2021TP3     H117090   2.169   1.110   9.391
 2021TP3     H217091   2.287   1.150   9.303
 2022TP3      O17092   2.824   1.502   9.282
 2022TP3     H117093   2.753   1.561   9.316
 2022TP3     H217094   2.894   1.565   9.261
 2023TP3      O17095   2.610   1.623   9.365
 2023TP3     H117096   2.605   1.691   9.294
 2023TP3     H217097   2.575   1.672   9.439
 2024TP3      O17098   2.452   0.276   9.291
 2024TP3     H117099   2.425   0.359   9.330
 2024TP3     H217100   2.545   0.271   9.320
 2025TP3      O17101   2.286   1.347   9.211
 2025TP3     H117102   2.354   1.404   9.251
 2025TP3     H217103   2.345   1.296   9.151
 2026TP3      O17104   2.120   0.615   9.135
 2026TP3     H117105   2.124   0.711   9.156
 2026TP3     H217106   2.032   0.603   9.099
 2027TP3      O17107   2.907   1.594   9.038
 2027TP3     H117108   2.837   1.529   9.062
 2027TP3     H217109   2.978   1.532   9.016
 2028TP3      O17110   3.365   1.566   9.057
 2028TP3     H117111   3.389   1.493   9.116
 2028TP3     H217112   3.442   1.577   8.999
 2029TP3      O17113   2.450   1.154   9.045
 2029TP3     H117114   2.470   1.082   9.106
 2029TP3     H217115   2.529   1.149   8.987
 2030TP3      O17116   3.005   1.271   9.031
 2030TP3     H117117   2.976   1.273   9.124
 2030TP3     H217118   2.980   1.178   9.007
 2031TP3      O17119   2.570   0.960   9.284
 2031TP3     H117120   2.522   0.903   9.345
 2031TP3     H217121   2.604   0.897   9.217
 2032TP3      O17122   2.680   0.782   9.104
 2032TP3     H117123   2.670   0.783   9.006
 2032TP3     H217124   2.777   0.785   9.115
 2033TP3      O17125   3.611   1.020   9.058
 2033TP3     H117126   3.598   0.981   8.970
 2033TP3     H217127   3.617   1.116   9.033
 2034TP3      O17128   2.662   1.851   9.223
 2034TP3     H117129   2.760   1.858   9.228
 2034TP3     H217130   2.648   1.910   9.147
 2035TP3      O17131   2.014   1.308   9.168
 2035TP3     H117132   2.109   1.321   9.185
 2035TP3     H217133   2.019   1.244   9.095
 2036TP3      O17134   3.732   0.890   9.264
 2036TP3     H117135   3.692   0.935   9.185
 2036TP3     H217136   3.741   0.960   9.331
 2037TP3      O17137   3.569   0.628   9.124
 2037TP3     H117138   3.575   0.688   9.049
 2037TP3     H217139   3.543   0.544   9.078
 2038TP3      O17140   3.486   0.386   9.047
 2038TP3     H117141   3.552   0.329   9.092
 2038TP3     H217142   3.405   0.331   9.055
 2039TP3      O17143   3.696   0.257   9.207
 2039TP3     H117144   3.730   0.190   9.141
 2039TP3     H217145   3.769   0.321   9.215
 2040TP3      O17146   2.070   0.104   9.292
 2040TP3     H117147   2.110   0.179   9.241
 2040TP3     H217148   2.003   0.147   9.344
 2041TP3      O17149   2.035   1.629   9.387
 2041TP3     H117150   1.961   1.649   9.326
 2041TP3     H217151   2.057   1.720   9.411
 2042TP3      O17152   2.229   0.253   9.140
 2042TP3     H117153   2.281   0.190   9.086
 2042TP3     H217154   2.293   0.272   9.212
 2043TP3      O17155   2.733   0.250   9.377
 2043TP3     H117156   2.755   0.196   9.454
 2043TP3     H217157   2.725   0.339   9.419
 2044TP3      O17158   2.931   1.770   9.238
 2044TP3     H117159   3.022   1.798   9.220
 2044TP3     H217160   2.913   1.723   9.154
 2045TP3      O17161   2.220   1.750   9.092
 2045TP3     H117162   2.195   1.773   9.182
 2045TP3     H217163   2.294   1.688   9.106
 2046TP3      O17164   4.837   0.768   9.156
 2046TP3     H117165   4.904   0.784   9.225
 2046TP3     H217166   4.881   0.695   9.109
 2047TP3      O17167   5.061   0.842   9.307
 2047TP3     H117168   5.092   0.876   9.393
 2047TP3     H217169   5.101   0.901   9.239
 2048TP3      O17170   5.421   0.032   9.308
 2048TP3     H117171   5.333   0.042   9.345
 2048TP3     H217172   5.441   0.119   9.272
 2049TP3      O17173   5.102   1.744   9.216
 2049TP3     H117174   5.143   1.668   9.171
 2049TP3     H217175   5.106   1.716   9.309
 2050TP3      O17176   5.208   0.964   9.111
 2050TP3     H117177   5.202   0.935   9.017
 2050TP3     H217178   5.293   1.010   9.105
 2051TP3      O17179   4.774   0.349   9.151
 2051TP3     H117180   4.745   0.348   9.243
 2051TP3     H217181   4.739   0.262   9.124
 2052TP3      O17182   4.450   0.389   9.069
 2052TP3     H117183   4.401   0.345   9.141
 2052TP3     H217184   4.381   0.431   9.015
 2053TP3      O17185   3.901   0.423   9.300
 2053TP3     H117186   3.967   0.482   9.258
 2053TP3     H217187   3.844   0.489   9.342
 2054TP3      O17188   4.329   0.660   9.214
 2054TP3     H117189   4.272   0.627   9.141
 2054TP3     H217190   4.406   0.689   9.162
 2055TP3      O17191   4.650   1.136   9.407
 2055TP3     H117192   4.584   1.075   9.368
 2055TP3     H217193   4.631   1.128   9.502
 2056TP3      O17194   5.041   0.405   9.214
 2056TP3     H117195   4.944   0.414   9.213
 2056TP3     H217196   5.072   0.478   9.272
 2057TP3      O17197   5.114   0.595   9.376
 2057TP3     H117198   5.199   0.585   9.418
 2057TP3     H217199   5.119   0.679   9.328
 2058TP3      O17200   4.868   1.265   9.306
 2058TP3     H117201   4.826   1.349   9.332
 2058TP3     H217202   4.798   1.202   9.334
 2059TP3      O17203   5.447   1.475   9.401
 2059TP3     H117204   5.407   1.392   9.428
 2059TP3     H217205   5.486   1.457   9.315
 2060TP3      O17206   3.982   0.896   9.167
 2060TP3     H117207   4.039   0.951   9.225
 2060TP3     H217208   3.893   0.916   9.200
 2061TP3      O17209   5.183   1.300   9.191
 2061TP3     H117210   5.200   1.265   9.279
 2061TP3     H217211   5.086   1.287   9.188
 2062TP3      O17212   4.592   1.409   9.031
 2062TP3     H117213   4.597   1.330   8.975
 2062TP3     H217214   4.548   1.370   9.111
 2063TP3      O17215   4.465   1.355   9.277
 2063TP3     H117216   4.498   1.310   9.357
 2063TP3     H217217   4.482   1.447   9.307
 2064TP3      O17218   4.103   1.083   9.312
 2064TP3     H117219   4.055   1.110   9.391
 2064TP3     H217220   4.173   1.150   9.303
 2065TP3      O17221   4.710   1.502   9.282
 2065TP3     H117222   4.639   1.561   9.316
 2065TP3     H217223   4.780   1.565   9.260
 2066TP3      O17224   4.496   1.622   9.365
 2066TP3     H117225   4.491   1.691   9.294
 2066TP3     H217226   4.460   1.672   9.439
 2067TP3      O17227   4.338   0.276   9.291
 2067TP3     H117228   4.311   0.359   9.330
 2067TP3     H217229   4.431   0.271   9.320
 2068TP3      O17230   4.172   1.347   9.210
 2068TP3     H117231   4.239   1.404   9.251
 2068TP3     H217232   4.230   1.296   9.151
 2069TP3      O17233   4.006   0.615   9.135
 2069TP3     H117234   4.010   0.711   9.156
 2069TP3     H217235   3.918   0.603   9.099
 2070TP3      O17236   4.793   1.595   9.038
 2070TP3     H117237   4.723   1.528   9.062
 2070TP3     H217238   4.864   1.532   9.016
 2071TP3      O17239   5.249   1.561   9.057
 2071TP3     H117240   5.272   1.488   9.115
 2071TP3     H217241   5.329   1.580   9.004
 2072TP3      O17242   4.337   1.155   9.045
 2072TP3     H117243   4.354   1.082   9.105
 2072TP3     H217244   4.416   1.149   8.987
 2073TP3      O17245   4.889   1.269   9.029
 2073TP3     H117246   4.861   1.273   9.123
 2073TP3     H217247   4.864   1.177   9.006
 2074TP3      O17248   4.456   0.961   9.284
 2074TP3     H117249   4.408   0.903   9.345
 2074TP3     H217250   4.489   0.897   9.216
 2075TP3      O17251   4.565   0.782   9.104
 2075TP3     H117252   4.556   0.783   9.006
 2075TP3     H217253   4.663   0.785   9.115
 2076TP3      O17254   5.482   1.007   9.063
 2076TP3     H117255   5.465   0.978   8.971
 2076TP3     H217256   5.504   1.102   9.051
 2077TP3      O17257   4.548   1.851   9.223
 2077TP3     H117258   4.646   1.857   9.228
 2077TP3     H217259   4.533   1.909   9.147
 2078TP3      O17260   3.899   1.309   9.168
 2078TP3     H117261   3.995   1.321   9.185
 2078TP3     H217262   3.905   1.244   9.095
 2079TP3      O17263   5.462   0.628   9.128
 2079TP3     H117264   5.456   0.683   9.049
 2079TP3     H217265   5.431   0.541   9.092
 2080TP3      O17266   5.372   0.390   9.052
 2080TP3     H117267   5.433   0.328   9.093
 2080TP3     H217268   5.292   0.335   9.047
 2081TP3      O17269   3.956   0.104   9.291
 2081TP3     H117270   3.995   0.179   9.241
 2081TP3     H217271   3.889   0.147   9.344
 2082TP3      O17272   3.920   1.629   9.387
 2082TP3     H117273   3.846   1.649   9.326
 2082TP3     H217274   3.942   1.720   9.412
 2083TP3      O17275   4.115   0.253   9.140
 2083TP3     H117276   4.167   0.190   9.086
 2083TP3     H217277   4.178   0.272   9.212
 2084TP3      O17278   4.620   0.250   9.377
 2084TP3     H117279   4.640   0.197   9.454
 2084TP3     H217280   4.611   0.339   9.419
 2085TP3      O17281   4.816   1.772   9.237
 2085TP3     H117282   4.908   1.798   9.219
 2085TP3     H217283   4.797   1.723   9.154
 2086TP3      O17284   4.107   1.752   9.094
 2086TP3     H117285   4.081   1.774   9.184
 2086TP3     H217286   4.180   1.688   9.107
 2087TP3      O17287   1.067   2.654   9.158
 2087TP3     H117288   1.137   2.668   9.226
 2087TP3     H217289   1.107   2.582   9.109
 2088TP3      O17290   1.294   2.728   9.306
 2088TP3     H117291   1.325   2.761   9.393
 2088TP3     H217292   1.329   2.790   9.239
 2089TP3      O17293   1.677   1.922   9.327
 2089TP3     H117294   1.581   1.915   9.334
 2089TP3     H217295   1.689   2.006   9.279
 2090TP3      O17296   1.795   3.352   9.128
 2090TP3     H117297   1.806   3.444   9.159
 2090TP3     H217298   1.884   3.318   9.150
 2091TP3      O17299   1.332   3.628   9.219
 2091TP3     H117300   1.372   3.555   9.168
 2091TP3     H217301   1.342   3.597   9.311
 2092TP3      O17302   1.451   2.851   9.116
 2092TP3     H117303   1.434   2.828   9.022
 2092TP3     H217304   1.535   2.897   9.105
 2093TP3      O17305   0.998   2.232   9.152
 2093TP3     H117306   0.968   2.230   9.243
 2093TP3     H217307   0.970   2.143   9.124
 2094TP3      O17308   0.678   2.272   9.070
 2094TP3     H117309   0.628   2.233   9.144
 2094TP3     H217310   0.610   2.317   9.018
 2095TP3      O17311   0.120   2.313   9.288
 2095TP3     H117312   0.192   2.372   9.255
 2095TP3     H217313   0.075   2.372   9.349
 2096TP3      O17314   0.558   2.546   9.213
 2096TP3     H117315   0.499   2.513   9.141
 2096TP3     H217316   0.634   2.575   9.161
 2097TP3      O17317   0.878   3.022   9.407
 2097TP3     H117318   0.813   2.961   9.368
 2097TP3     H217319   0.860   3.014   9.502
 2098TP3      O17320   1.271   2.291   9.213
 2098TP3     H117321   1.175   2.304   9.212
 2098TP3     H217322   1.303   2.366   9.270
 2099TP3      O17323   1.345   2.481   9.377
 2099TP3     H117324   1.432   2.475   9.418
 2099TP3     H217325   1.348   2.565   9.327
 2100TP3      O17326   1.094   3.150   9.304
 2100TP3     H117327   1.055   3.234   9.332
 2100TP3     H217328   1.026   3.087   9.335
 2101TP3      O17329   1.848   2.501   9.350
 2101TP3     H117330   1.792   2.468   9.277
 2101TP3     H217331   1.853   2.595   9.323
 2102TP3      O17332   1.653   3.365   9.348
 2102TP3     H117333   1.658   3.299   9.419
 2102TP3     H217334   1.711   3.332   9.278
 2103TP3      O17335   0.208   2.777   9.173
 2103TP3     H117336   0.267   2.836   9.226
 2103TP3     H217337   0.121   2.808   9.198
 2104TP3      O17338   1.413   3.183   9.184
 2104TP3     H117339   1.433   3.155   9.275
 2104TP3     H217340   1.317   3.169   9.183
 2105TP3      O17341   1.849   3.618   9.212
 2105TP3     H117342   1.920   3.683   9.197
 2105TP3     H217343   1.778   3.680   9.240
 2106TP3      O17344   0.821   3.294   9.031
 2106TP3     H117345   0.826   3.215   8.975
 2106TP3     H217346   0.777   3.256   9.111
 2107TP3      O17347   0.693   3.240   9.278
 2107TP3     H117348   0.726   3.195   9.357
 2107TP3     H217349   0.714   3.332   9.305
 2108TP3      O17350   0.328   2.968   9.314
 2108TP3     H117351   0.287   3.001   9.393
 2108TP3     H217352   0.397   3.036   9.299
 2109TP3      O17353   0.938   3.388   9.282
 2109TP3     H117354   0.867   3.448   9.316
 2109TP3     H217355   1.008   3.451   9.261
 2110TP3      O17356   0.721   3.508   9.363
 2110TP3     H117357   0.716   3.578   9.294
 2110TP3     H217358   0.687   3.557   9.439
 2111TP3      O17359   0.569   2.167   9.293
 2111TP3     H117360   0.541   2.249   9.337
 2111TP3     H217361   0.662   2.156   9.320
 2112TP3      O17362   0.406   3.232   9.214
 2112TP3     H117363   0.471   3.292   9.253
 2112TP3     H217364   0.464   3.184   9.151
 2113TP3      O17365   0.246   2.499   9.120
 2113TP3     H117366   0.242   2.593   9.147
 2113TP3     H217367   0.154   2.480   9.100
 2114TP3      O17368   1.022   3.480   9.039
 2114TP3     H117369   0.952   3.414   9.062
 2114TP3     H217370   1.093   3.417   9.016
 2115TP3      O17371   1.479   3.452   9.057
 2115TP3     H117372   1.504   3.378   9.116
 2115TP3     H217373   1.557   3.463   8.999
 2116TP3      O17374   0.563   3.040   9.044
 2116TP3     H117375   0.582   2.968   9.105
 2116TP3     H217376   0.642   3.035   8.987
 2117TP3      O17377   1.120   3.156   9.031
 2117TP3     H117378   1.090   3.159   9.123
 2117TP3     H217379   1.094   3.064   9.007
 2118TP3      O17380   0.685   2.844   9.283
 2118TP3     H117381   0.637   2.787   9.345
 2118TP3     H217382   0.719   2.781   9.216
 2119TP3      O17383   0.794   2.666   9.103
 2119TP3     H117384   0.784   2.668   9.006
 2119TP3     H217385   0.892   2.670   9.115
 2120TP3      O17386   1.725   2.905   9.059
 2120TP3     H117387   1.713   2.865   8.970
 2120TP3     H217388   1.732   3.000   9.033
 2121TP3      O17389   0.776   3.737   9.224
 2121TP3     H117390   0.873   3.743   9.228
 2121TP3     H217391   0.763   3.795   9.147
 2122TP3      O17392   0.135   3.196   9.176
 2122TP3     H117393   0.231   3.215   9.189
 2122TP3     H217394   0.143   3.140   9.096
 2123TP3      O17395   1.847   2.776   9.264
 2123TP3     H117396   1.806   2.821   9.185
 2123TP3     H217397   1.856   2.845   9.331
 2124TP3      O17398   1.686   2.506   9.124
 2124TP3     H117399   1.689   2.569   9.051
 2124TP3     H217400   1.662   2.423   9.077
 2125TP3      O17401   1.607   2.253   9.042
 2125TP3     H117402   1.667   2.205   9.102
 2125TP3     H217403   1.521   2.215   9.062
 2126TP3      O17404   1.810   2.139   9.202
 2126TP3     H117405   1.851   2.065   9.151
 2126TP3     H217406   1.886   2.200   9.209
 2127TP3      O17407   0.176   1.943   9.297
 2127TP3     H117408   0.222   2.011   9.246
 2127TP3     H217409   0.116   1.996   9.349
 2128TP3      O17410   0.141   3.535   9.399
 2128TP3     H117411   0.074   3.546   9.330
 2128TP3     H217412   0.168   3.627   9.414
 2129TP3      O17413   0.353   2.140   9.142
 2129TP3     H117414   0.400   2.074   9.089
 2129TP3     H217415   0.417   2.154   9.215
 2130TP3      O17416   0.854   2.136   9.378
 2130TP3     H117417   0.864   2.085   9.461
 2130TP3     H217418   0.846   2.228   9.415
 2131TP3      O17419   1.045   3.656   9.238
 2131TP3     H117420   1.137   3.684   9.220
 2131TP3     H217421   1.027   3.608   9.154
 2132TP3      O17422   0.338   3.634   9.092
 2132TP3     H117423   0.308   3.658   9.182
 2132TP3     H217424   0.415   3.577   9.110
 2133TP3      O17425   2.953   2.655   9.158
 2133TP3     H117426   3.022   2.668   9.226
 2133TP3     H217427   2.993   2.582   9.109
 2134TP3      O17428   3.180   2.728   9.306
 2134TP3     H117429   3.211   2.761   9.393
 2134TP3     H217430   3.215   2.790   9.239
 2135TP3      O17431   3.563   1.922   9.326
 2135TP3     H117432   3.467   1.916   9.335
 2135TP3     H217433   3.574   2.006   9.279
 2136TP3      O17434   3.684   3.347   9.131
 2136TP3     H117435   3.688   3.441   9.157
 2136TP3     H217436   3.774   3.318   9.155
 2137TP3      O17437   3.207   3.623   9.221
 2137TP3     H117438   3.259   3.560   9.166
 2137TP3     H217439   3.230   3.594   9.311
 2138TP3      O17440   3.337   2.851   9.116
 2138TP3     H117441   3.320   2.828   9.021
 2138TP3     H217442   3.421   2.897   9.105
 2139TP3      O17443   2.885   2.231   9.152
 2139TP3     H117444   2.853   2.229   9.243
 2139TP3     H217445   2.856   2.143   9.123
 2140TP3      O17446   2.566   2.272   9.069
 2140TP3     H117447   2.515   2.233   9.143
 2140TP3     H217448   2.498   2.318   9.016
 2141TP3      O17449   2.014   2.299   9.302
 2141TP3     H117450   2.079   2.358   9.257
 2141TP3     H217451   1.958   2.367   9.343
 2142TP3      O17452   2.444   2.545   9.213
 2142TP3     H117453   2.387   2.513   9.142
 2142TP3     H217454   2.521   2.575   9.161
 2143TP3      O17455   2.764   3.021   9.407
 2143TP3     H117456   2.698   2.961   9.368
 2143TP3     H217457   2.745   3.014   9.502
 2144TP3      O17458   3.157   2.292   9.212
 2144TP3     H117459   3.060   2.303   9.213
 2144TP3     H217460   3.189   2.365   9.270
 2145TP3      O17461   3.229   2.481   9.377
 2145TP3     H117462   3.317   2.475   9.417
 2145TP3     H217463   3.233   2.564   9.327
 2146TP3      O17464   2.981   3.150   9.307
 2146TP3     H117465   2.941   3.234   9.333
 2146TP3     H217466   2.910   3.087   9.335
 2147TP3      O17467   3.734   2.501   9.349
 2147TP3     H117468   3.677   2.468   9.276
 2147TP3     H217469   3.738   2.596   9.323
 2148TP3      O17470   3.539   3.365   9.351
 2148TP3     H117471   3.543   3.296   9.418
 2148TP3     H217472   3.595   3.334   9.277
 2149TP3      O17473   2.096   2.782   9.167
 2149TP3     H117474   2.153   2.837   9.226
 2149TP3     H217475   2.008   2.802   9.201
 2150TP3      O17476   3.300   3.179   9.185
 2150TP3     H117477   3.315   3.155   9.277
 2150TP3     H217478   3.203   3.171   9.183
 2151TP3      O17479   3.736   3.619   9.212
 2151TP3     H117480   3.807   3.685   9.199
 2151TP3     H217481   3.663   3.679   9.237
 2152TP3      O17482   2.706   3.294   9.031
 2152TP3     H117483   2.712   3.215   8.975
 2152TP3     H217484   2.663   3.256   9.111
 2153TP3      O17485   2.579   3.241   9.278
 2153TP3     H117486   2.612   3.196   9.357
 2153TP3     H217487   2.596   3.333   9.306
 2154TP3      O17488   2.217   2.969   9.313
 2154TP3     H117489   2.169   2.996   9.391
 2154TP3     H217490   2.287   3.036   9.303
 2155TP3      O17491   2.827   3.388   9.281
 2155TP3     H117492   2.755   3.447   9.315
 2155TP3     H217493   2.895   3.453   9.257
 2156TP3      O17494   2.611   3.508   9.364
 2156TP3     H117495   2.606   3.576   9.294
 2156TP3     H217496   2.575   3.557   9.439
 2157TP3      O17497   2.453   2.168   9.291
 2157TP3     H117498   2.430   2.250   9.336
 2157TP3     H217499   2.547   2.155   9.319
 2158TP3      O17500   2.285   3.232   9.211
 2158TP3     H117501   2.352   3.289   9.252
 2158TP3     H217502   2.345   3.182   9.152
 2159TP3      O17503   2.119   2.502   9.138
 2159TP3     H117504   2.123   2.598   9.155
 2159TP3     H217505   2.032   2.487   9.100
 2160TP3      O17506   2.910   3.481   9.037
 2160TP3     H117507   2.842   3.413   9.060
 2160TP3     H217508   2.982   3.421   9.010
 2161TP3      O17509   3.396   3.456   9.103
 2161TP3     H117510   3.391   3.361   9.116
 2161TP3     H217511   3.420   3.468   9.009
 2162TP3      O17512   2.451   3.040   9.045
 2162TP3     H117513   2.469   2.968   9.105
 2162TP3     H217514   2.530   3.034   8.987
 2163TP3      O17515   2.996   3.142   9.040
 2163TP3     H117516   2.970   3.151   9.132
 2163TP3     H217517   2.971   3.050   9.016
 2164TP3      O17518   2.571   2.845   9.283
 2164TP3     H117519   2.523   2.788   9.345
 2164TP3     H217520   2.604   2.781   9.216
 2165TP3      O17521   2.680   2.665   9.103
 2165TP3     H117522   2.670   2.668   9.005
 2165TP3     H217523   2.777   2.670   9.115
 2166TP3      O17524   3.612   2.901   9.058
 2166TP3     H117525   3.599   2.864   8.969
 2166TP3     H217526   3.618   2.997   9.035
 2167TP3      O17527   2.661   3.737   9.223
 2167TP3     H117528   2.758   3.742   9.230
 2167TP3     H217529   2.649   3.796   9.147
 2168TP3      O17530   2.014   3.195   9.168
 2168TP3     H117531   2.110   3.207   9.185
 2168TP3     H217532   2.020   3.129   9.095
 2169TP3      O17533   3.735   2.775   9.264
 2169TP3     H117534   3.692   2.820   9.186
 2169TP3     H217535   3.742   2.845   9.332
 2170TP3      O17536   3.572   2.507   9.124
 2170TP3     H117537   3.573   2.570   9.052
 2170TP3     H217538   3.548   2.423   9.077
 2171TP3      O17539   3.493   2.255   9.044
 2171TP3     H117540   3.553   2.206   9.103
 2171TP3     H217541   3.407   2.215   9.062
 2172TP3      O17542   3.695   2.139   9.198
 2172TP3     H117543   3.737   2.065   9.148
 2172TP3     H217544   3.772   2.199   9.207
 2173TP3      O17545   2.052   1.940   9.294
 2173TP3     H117546   2.110   2.002   9.246
 2173TP3     H217547   2.005   2.004   9.347
 2174TP3      O17548   2.034   3.514   9.387
 2174TP3     H117549   1.961   3.535   9.326
 2174TP3     H217550   2.055   3.606   9.413
 2175TP3      O17551   2.231   2.139   9.145
 2175TP3     H117552   2.280   2.076   9.090
 2175TP3     H217553   2.299   2.160   9.213
 2176TP3      O17554   2.739   2.135   9.379
 2176TP3     H117555   2.750   2.086   9.462
 2176TP3     H217556   2.731   2.227   9.415
 2177TP3      O17557   2.929   3.657   9.237
 2177TP3     H117558   3.022   3.682   9.220
 2177TP3     H217559   2.915   3.608   9.153
 2178TP3      O17560   2.222   3.638   9.093
 2178TP3     H117561   2.196   3.659   9.184
 2178TP3     H217562   2.295   3.573   9.107
 2179TP3      O17563   4.834   2.642   9.156
 2179TP3     H117564   4.898   2.669   9.226
 2179TP3     H217565   4.894   2.585   9.106
 2180TP3      O17566   5.056   2.728   9.304
 2180TP3     H117567   5.089   2.759   9.390
 2180TP3     H217568   5.100   2.786   9.237
 2181TP3      O17569   5.417   1.915   9.332
 2181TP3     H117570   5.322   1.929   9.334
 2181TP3     H217571   5.449   1.987   9.279
 2182TP3      O17572   5.103   3.629   9.215
 2182TP3     H117573   5.144   3.553   9.171
 2182TP3     H217574   5.106   3.602   9.309
 2183TP3      O17575   5.210   2.845   9.110
 2183TP3     H117576   5.202   2.820   9.015
 2183TP3     H217577   5.293   2.895   9.105
 2184TP3      O17578   4.763   2.235   9.149
 2184TP3     H117579   4.744   2.228   9.244
 2184TP3     H217580   4.744   2.143   9.124
 2185TP3      O17581   4.454   2.290   9.071
 2185TP3     H117582   4.412   2.240   9.144
 2185TP3     H217583   4.376   2.306   9.015
 2186TP3      O17584   3.900   2.299   9.301
 2186TP3     H117585   3.965   2.358   9.257
 2186TP3     H217586   3.843   2.366   9.343
 2187TP3      O17587   4.327   2.543   9.217
 2187TP3     H117588   4.268   2.510   9.147
 2187TP3     H217589   4.395   2.586   9.165
 2188TP3      O17590   4.650   3.023   9.409
 2188TP3     H117591   4.582   2.965   9.371
 2188TP3     H217592   4.632   3.016   9.504
 2189TP3      O17593   5.041   2.295   9.209
 2189TP3     H117594   4.945   2.303   9.214
 2189TP3     H217595   5.074   2.366   9.269
 2190TP3      O17596   5.114   2.482   9.378
 2190TP3     H117597   5.201   2.471   9.418
 2190TP3     H217598   5.120   2.565   9.327
 2191TP3      O17599   4.870   3.153   9.308
 2191TP3     H117600   4.826   3.236   9.332
 2191TP3     H217601   4.800   3.089   9.335
 2192TP3      O17602   5.447   3.361   9.401
 2192TP3     H117603   5.407   3.278   9.428
 2192TP3     H217604   5.486   3.342   9.315
 2193TP3      O17605   3.985   2.781   9.166
 2193TP3     H117606   4.041   2.836   9.226
 2193TP3     H217607   3.896   2.801   9.199
 2194TP3      O17608   5.183   3.186   9.191
 2194TP3     H117609   5.200   3.151   9.279
 2194TP3     H217610   5.086   3.173   9.189
 2195TP3      O17611   4.592   3.293   9.031
 2195TP3     H117612   4.597   3.214   8.975
 2195TP3     H217613   4.548   3.256   9.111
 2196TP3      O17614   4.463   3.244   9.279
 2196TP3     H117615   4.497   3.199   9.358
 2196TP3     H217616   4.482   3.336   9.308
 2197TP3      O17617   4.107   2.966   9.314
 2197TP3     H117618   4.055   2.995   9.389
 2197TP3     H217619   4.173   3.037   9.304
 2198TP3      O17620   4.710   3.387   9.282
 2198TP3     H117621   4.639   3.447   9.316
 2198TP3     H217622   4.780   3.451   9.260
 2199TP3      O17623   4.497   3.508   9.365
 2199TP3     H117624   4.491   3.576   9.294
 2199TP3     H217625   4.460   3.558   9.439
 2200TP3      O17626   4.341   2.171   9.289
 2200TP3     H117627   4.312   2.247   9.340
 2200TP3     H217628   4.430   2.153   9.323
 2201TP3      O17629   4.172   3.233   9.211
 2201TP3     H117630   4.240   3.289   9.250
 2201TP3     H217631   4.231   3.182   9.151
 2202TP3      O17632   4.007   2.500   9.134
 2202TP3     H117633   4.010   2.596   9.154
 2202TP3     H217634   3.918   2.486   9.100
 2203TP3      O17635   4.792   3.480   9.038
 2203TP3     H117636   4.723   3.414   9.062
 2203TP3     H217637   4.864   3.417   9.016
 2204TP3      O17638   5.250   3.447   9.051
 2204TP3     H117639   5.271   3.376   9.114
 2204TP3     H217640   5.334   3.466   9.004
 2205TP3      O17641   4.333   3.045   9.044
 2205TP3     H117642   4.351   2.973   9.106
 2205TP3     H217643   4.411   3.039   8.986
 2206TP3      O17644   4.890   3.154   9.030
 2206TP3     H117645   4.861   3.159   9.123
 2206TP3     H217646   4.863   3.062   9.007
 2207TP3      O17647   4.454   2.850   9.288
 2207TP3     H117648   4.405   2.793   9.350
 2207TP3     H217649   4.485   2.786   9.221
 2208TP3      O17650   4.562   2.681   9.109
 2208TP3     H117651   4.548   2.714   9.016
 2208TP3     H217652   4.659   2.697   9.125
 2209TP3      O17653   5.481   2.894   9.062
 2209TP3     H117654   5.465   2.864   8.970
 2209TP3     H217655   5.505   2.989   9.050
 2210TP3      O17656   4.548   3.736   9.223
 2210TP3     H117657   4.646   3.743   9.228
 2210TP3     H217658   4.534   3.795   9.147
 2211TP3      O17659   3.903   3.190   9.172
 2211TP3     H117660   3.999   3.205   9.185
 2211TP3     H217661   3.907   3.128   9.095
 2212TP3      O17662   5.463   2.510   9.128
 2212TP3     H117663   5.457   2.568   9.051
 2212TP3     H217664   5.430   2.426   9.090
 2213TP3      O17665   5.376   2.270   9.049
 2213TP3     H117666   5.431   2.210   9.101
 2213TP3     H217667   5.291   2.222   9.049
 2214TP3      O17668   3.938   1.940   9.294
 2214TP3     H117669   3.995   2.002   9.246
 2214TP3     H217670   3.890   2.004   9.347
 2215TP3      O17671   3.921   3.514   9.387
 2215TP3     H117672   3.846   3.534   9.326
 2215TP3     H217673   3.941   3.606   9.412
 2216TP3      O17674   4.113   2.137   9.146
 2216TP3     H117675   4.165   2.076   9.090
 2216TP3     H217676   4.178   2.158   9.216
 2217TP3      O17677   4.624   2.135   9.378
 2217TP3     H117678   4.635   2.085   9.460
 2217TP3     H217679   4.615   2.227   9.415
 2218TP3      O17680   4.816   3.658   9.237
 2218TP3     H117681   4.908   3.684   9.219
 2218TP3     H217682   4.797   3.608   9.154
 2219TP3      O17683   4.106   3.637   9.093
 2219TP3     H117684   4.081   3.659   9.184
 2219TP3     H217685   4.179   3.573   9.106
 2220TP3      O17686   1.067   4.541   9.158
 2220TP3     H117687   1.136   4.554   9.226
 2220TP3     H217688   1.108   4.469   9.109
 2221TP3      O17689   1.293   4.613   9.306
 2221TP3     H117690   1.325   4.646   9.392
 2221TP3     H217691   1.329   4.676   9.239
 2222TP3      O17692   1.678   3.808   9.326
 2222TP3     H117693   1.581   3.801   9.335
 2222TP3     H217694   1.688   3.892   9.279
 2223TP3      O17695   1.797   5.231   9.128
 2223TP3     H117696   1.806   5.322   9.163
 2223TP3     H217697   1.883   5.192   9.155
 2224TP3      O17698   1.321   5.499   9.228
 2224TP3     H117699   1.377   5.432   9.186
 2224TP3     H217700   1.336   5.485   9.323
 2225TP3      O17701   1.451   4.733   9.116
 2225TP3     H117702   1.434   4.713   9.020
 2225TP3     H217703   1.534   4.782   9.105
 2226TP3      O17704   1.004   4.114   9.154
 2226TP3     H117705   0.966   4.116   9.243
 2226TP3     H217706   0.969   4.029   9.124
 2227TP3      O17707   0.678   4.153   9.069
 2227TP3     H117708   0.625   4.118   9.145
 2227TP3     H217709   0.613   4.208   9.019
 2228TP3      O17710   0.122   4.198   9.291
 2228TP3     H117711   0.190   4.259   9.253
 2228TP3     H217712   0.075   4.259   9.347
 2229TP3      O17713   0.558   4.431   9.212
 2229TP3     H117714   0.501   4.395   9.140
 2229TP3     H217715   0.632   4.463   9.159
 2230TP3      O17716   0.879   4.904   9.407
 2230TP3     H117717   0.813   4.844   9.368
 2230TP3     H217718   0.860   4.899   9.502
 2231TP3      O17719   1.272   4.177   9.213
 2231TP3     H117720   1.176   4.188   9.212
 2231TP3     H217721   1.303   4.252   9.270
 2232TP3      O17722   1.343   4.367   9.378
 2232TP3     H117723   1.432   4.360   9.418
 2232TP3     H217724   1.347   4.450   9.327
 2233TP3      O17725   1.096   5.034   9.303
 2233TP3     H117726   1.056   5.118   9.333
 2233TP3     H217727   1.028   4.970   9.335
 2234TP3      O17728   1.847   4.386   9.350
 2234TP3     H117729   1.792   4.353   9.276
 2234TP3     H217730   1.852   4.481   9.323
 2235TP3      O17731   1.649   5.236   9.348
 2235TP3     H117732   1.661   5.170   9.418
 2235TP3     H217733   1.714   5.214   9.279
 2236TP3      O17734   0.209   4.665   9.167
 2236TP3     H117735   0.268   4.721   9.222
 2236TP3     H217736   0.122   4.695   9.193
 2237TP3      O17737   1.415   5.058   9.183
 2237TP3     H117738   1.433   5.038   9.276
 2237TP3     H217739   1.318   5.052   9.182
 2238TP3      O17740   1.863  -0.061   9.224
 2238TP3     H117741   1.928   0.008   9.203
 2238TP3     H217742   1.782  -0.010   9.251
 2239TP3      O17743   0.827   5.172   9.030
 2239TP3     H117744   0.826   5.090   8.977
 2239TP3     H217745   0.778   5.142   9.109
 2240TP3      O17746   0.691   5.134   9.277
 2240TP3     H117747   0.726   5.083   9.353
 2240TP3     H217748   0.717   5.225   9.302
 2241TP3      O17749   0.329   4.848   9.317
 2241TP3     H117750   0.288   4.887   9.394
 2241TP3     H217751   0.396   4.917   9.296
 2242TP3      O17752   0.939   5.265   9.295
 2242TP3     H117753   0.870   5.330   9.322
 2242TP3     H217754   1.007   5.325   9.259
 2243TP3      O17755   0.725   5.402   9.357
 2243TP3     H117756   0.712   5.479   9.298
 2243TP3     H217757   0.678   5.429   9.437
 2244TP3      O17758   0.568   4.053   9.294
 2244TP3     H117759   0.541   4.135   9.337
 2244TP3     H217760   0.663   4.042   9.319
 2245TP3      O17761   0.408   5.105   9.214
 2245TP3     H117762   0.469   5.172   9.250
 2245TP3     H217763   0.465   5.062   9.148
 2246TP3      O17764   0.242   4.379   9.129
 2246TP3     H117765   0.244   4.475   9.145
 2246TP3     H217766   0.152   4.369   9.096
 2247TP3      O17767   1.022   5.361   9.046
 2247TP3     H117768   0.953   5.295   9.066
 2247TP3     H217769   1.095   5.302   9.021
 2248TP3      O17770   1.479   5.336   9.062
 2248TP3     H117771   1.504   5.260   9.117
 2248TP3     H217772   1.555   5.348   9.002
 2249TP3      O17773   0.565   4.925   9.045
 2249TP3     H117774   0.579   4.849   9.101
 2249TP3     H217775   0.639   4.914   8.982
 2250TP3      O17776   1.118   5.042   9.029
 2250TP3     H117777   1.086   5.049   9.121
 2250TP3     H217778   1.092   4.949   9.008
 2251TP3      O17779   0.690   4.729   9.288
 2251TP3     H117780   0.635   4.672   9.344
 2251TP3     H217781   0.720   4.668   9.217
 2252TP3      O17782   0.795   4.552   9.105
 2252TP3     H117783   0.781   4.555   9.008
 2252TP3     H217784   0.892   4.559   9.111
 2253TP3      O17785   1.725   4.789   9.058
 2253TP3     H117786   1.713   4.750   8.970
 2253TP3     H217787   1.731   4.885   9.033
 2254TP3      O17788   0.135   5.071   9.173
 2254TP3     H117789   0.227   5.100   9.188
 2254TP3     H217790   0.148   5.020   9.091
 2255TP3      O17791   1.849   4.662   9.265
 2255TP3     H117792   1.807   4.706   9.186
 2255TP3     H217793   1.855   4.732   9.332
 2256TP3      O17794   1.686   4.392   9.124
 2256TP3     H117795   1.689   4.454   9.051
 2256TP3     H217796   1.662   4.308   9.077
 2257TP3      O17797   1.607   4.140   9.044
 2257TP3     H117798   1.667   4.091   9.103
 2257TP3     H217799   1.521   4.101   9.062
 2258TP3      O17800   1.810   4.025   9.199
 2258TP3     H117801   1.851   3.950   9.148
 2258TP3     H217802   1.886   4.085   9.208
 2259TP3      O17803   0.176   3.829   9.297
 2259TP3     H117804   0.222   3.898   9.246
 2259TP3     H217805   0.116   3.881   9.350
 2260TP3      O17806   0.148   5.395   9.417
 2260TP3     H117807   0.081   5.412   9.347
 2260TP3     H217808   0.183   5.485   9.423
 2261TP3      O17809   0.354   4.027   9.141
 2261TP3     H117810   0.400   3.960   9.089
 2261TP3     H217811   0.417   4.041   9.215
 2262TP3      O17812   0.854   4.020   9.379
 2262TP3     H117813   0.864   3.971   9.461
 2262TP3     H217814   0.846   4.112   9.415
 2263TP3      O17815   0.328   5.487   9.098
 2263TP3     H117816   0.300   5.529   9.182
 2263TP3     H217817   0.417   5.457   9.120
 2264TP3      O17818   2.953   4.539   9.159
 2264TP3     H117819   3.023   4.553   9.226
 2264TP3     H217820   2.994   4.466   9.109
 2265TP3      O17821   3.181   4.613   9.305
 2265TP3     H117822   3.212   4.647   9.392
 2265TP3     H217823   3.216   4.675   9.237
 2266TP3      O17824   3.564   3.807   9.326
 2266TP3     H117825   3.467   3.800   9.332
 2266TP3     H217826   3.574   3.892   9.282
 2267TP3      O17827   3.683   5.231   9.128
 2267TP3     H117828   3.692   5.322   9.163
 2267TP3     H217829   3.769   5.193   9.155
 2268TP3      O17830   3.207   5.499   9.228
 2268TP3     H117831   3.264   5.432   9.186
 2268TP3     H217832   3.221   5.485   9.323
 2269TP3      O17833   3.344   4.726   9.113
 2269TP3     H117834   3.321   4.715   9.017
 2269TP3     H217835   3.419   4.787   9.103
 2270TP3      O17836   2.885   4.117   9.152
 2270TP3     H117837   2.854   4.116   9.244
 2270TP3     H217838   2.857   4.028   9.124
 2271TP3      O17839   2.566   4.157   9.070
 2271TP3     H117840   2.515   4.118   9.144
 2271TP3     H217841   2.499   4.203   9.017
 2272TP3      O17842   2.014   4.185   9.302
 2272TP3     H117843   2.079   4.243   9.257
 2272TP3     H217844   1.957   4.252   9.343
 2273TP3      O17845   2.445   4.429   9.214
 2273TP3     H117846   2.387   4.396   9.143
 2273TP3     H217847   2.521   4.461   9.161
 2274TP3      O17848   2.767   4.902   9.407
 2274TP3     H117849   2.698   4.844   9.369
 2274TP3     H217850   2.747   4.899   9.502
 2275TP3      O17851   3.158   4.179   9.214
 2275TP3     H117852   3.061   4.188   9.213
 2275TP3     H217853   3.187   4.253   9.273
 2276TP3      O17854   3.233   4.366   9.373
 2276TP3     H117855   3.317   4.364   9.422
 2276TP3     H217856   3.232   4.454   9.331
 2277TP3      O17857   2.979   5.036   9.305
 2277TP3     H117858   2.939   5.119   9.334
 2277TP3     H217859   2.911   4.972   9.335
 2278TP3      O17860   3.735   4.387   9.352
 2278TP3     H117861   3.677   4.355   9.280
 2278TP3     H217862   3.739   4.482   9.327
 2279TP3      O17863   3.534   5.235   9.347
 2279TP3     H117864   3.547   5.170   9.418
 2279TP3     H217865   3.601   5.215   9.280
 2280TP3      O17866   2.097   4.668   9.166
 2280TP3     H117867   2.153   4.722   9.226
 2280TP3     H217868   2.008   4.687   9.200
 2281TP3      O17869   3.300   5.057   9.180
 2281TP3     H117870   3.319   5.036   9.273
 2281TP3     H217871   3.203   5.052   9.181
 2282TP3      O17872   3.748  -0.061   9.224
 2282TP3     H117873   3.813   0.008   9.202
 2282TP3     H217874   3.668  -0.010   9.250
 2283TP3      O17875   2.713   5.173   9.030
 2283TP3     H117876   2.714   5.092   8.976
 2283TP3     H217877   2.663   5.141   9.109
 2284TP3      O17878   2.577   5.134   9.275
 2284TP3     H117879   2.611   5.084   9.352
 2284TP3     H217880   2.599   5.226   9.302
 2285TP3      O17881   2.220   4.850   9.315
 2285TP3     H117882   2.168   4.879   9.390
 2285TP3     H217883   2.286   4.920   9.303
 2286TP3      O17884   2.826   5.265   9.295
 2286TP3     H117885   2.757   5.329   9.322
 2286TP3     H217886   2.893   5.324   9.257
 2287TP3      O17887   2.616   5.404   9.359
 2287TP3     H117888   2.598   5.477   9.298
 2287TP3     H217889   2.565   5.430   9.437
 2288TP3      O17890   2.453   4.054   9.292
 2288TP3     H117891   2.430   4.136   9.336
 2288TP3     H217892   2.547   4.040   9.319
 2289TP3      O17893   2.286   5.108   9.212
 2289TP3     H117894   2.348   5.175   9.247
 2289TP3     H217895   2.347   5.064   9.151
 2290TP3      O17896   2.120   4.387   9.136
 2290TP3     H117897   2.123   4.483   9.154
 2290TP3     H217898   2.032   4.372   9.100
 2291TP3      O17899   2.909   5.361   9.047
 2291TP3     H117900   2.838   5.295   9.067
 2291TP3     H217901   2.981   5.301   9.020
 2292TP3      O17902   3.368   5.338   9.066
 2292TP3     H117903   3.389   5.257   9.115
 2292TP3     H217904   3.440   5.345   9.000
 2293TP3      O17905   2.447   4.925   9.049
 2293TP3     H117906   2.469   4.852   9.108
 2293TP3     H217907   2.523   4.922   8.988
 2294TP3      O17908   3.001   5.045   9.032
 2294TP3     H117909   2.970   5.049   9.124
 2294TP3     H217910   2.979   4.952   9.008
 2295TP3      O17911   2.571   4.730   9.282
 2295TP3     H117912   2.523   4.673   9.345
 2295TP3     H217913   2.604   4.666   9.216
 2296TP3      O17914   2.680   4.551   9.104
 2296TP3     H117915   2.669   4.554   9.006
 2296TP3     H217916   2.777   4.555   9.115
 2297TP3      O17917   3.610   4.788   9.055
 2297TP3     H117918   3.597   4.754   8.965
 2297TP3     H217919   3.616   4.885   9.034
 2298TP3      O17920   2.014   5.068   9.169
 2298TP3     H117921   2.109   5.088   9.186
 2298TP3     H217922   2.023   5.007   9.093
 2299TP3      O17923   3.733   4.659   9.263
 2299TP3     H117924   3.692   4.707   9.186
 2299TP3     H217925   3.743   4.729   9.331
 2300TP3      O17926   3.579   4.395   9.130
 2300TP3     H117927   3.556   4.470   9.073
 2300TP3     H217928   3.514   4.324   9.111
 2301TP3      O17929   3.493   4.146   9.050
 2301TP3     H117930   3.549   4.087   9.106
 2301TP3     H217931   3.406   4.100   9.056
 2302TP3      O17932   3.696   4.028   9.193
 2302TP3     H117933   3.738   3.950   9.150
 2302TP3     H217934   3.774   4.083   9.216
 2303TP3      O17935   2.052   3.826   9.294
 2303TP3     H117936   2.110   3.888   9.246
 2303TP3     H217937   2.005   3.890   9.348
 2304TP3      O17938   2.044   5.377   9.398
 2304TP3     H117939   1.976   5.398   9.330
 2304TP3     H217940   2.070   5.469   9.418
 2305TP3      O17941   2.231   4.025   9.145
 2305TP3     H117942   2.280   3.961   9.090
 2305TP3     H217943   2.299   4.045   9.213
 2306TP3      O17944   2.740   4.021   9.379
 2306TP3     H117945   2.750   3.972   9.462
 2306TP3     H217946   2.731   4.113   9.415
 2307TP3      O17947   2.206   5.484   9.097
 2307TP3     H117948   2.184   5.532   9.179
 2307TP3     H217949   2.296   5.452   9.117
 2308TP3      O17950   4.837   4.539   9.156
 2308TP3     H117951   4.904   4.555   9.226
 2308TP3     H217952   4.881   4.467   9.109
 2309TP3      O17953   5.059   4.615   9.307
 2309TP3     H117954   5.092   4.647   9.393
 2309TP3     H217955   5.101   4.672   9.239
 2310TP3      O17956   5.417   3.800   9.331
 2310TP3     H117957   5.323   3.816   9.336
 2310TP3     H217958   5.449   3.873   9.278
 2311TP3      O17959   5.114   5.509   9.225
 2311TP3     H117960   5.155   5.430   9.188
 2311TP3     H217961   5.100   5.488   9.319
 2312TP3      O17962   5.210   4.730   9.110
 2312TP3     H117963   5.202   4.704   9.015
 2312TP3     H217964   5.293   4.779   9.105
 2313TP3      O17965   4.773   4.116   9.153
 2313TP3     H117966   4.740   4.116   9.244
 2313TP3     H217967   4.741   4.028   9.124
 2314TP3      O17968   4.451   4.158   9.069
 2314TP3     H117969   4.400   4.119   9.144
 2314TP3     H217970   4.384   4.203   9.017
 2315TP3      O17971   3.897   4.184   9.298
 2315TP3     H117972   3.966   4.242   9.260
 2315TP3     H217973   3.845   4.252   9.345
 2316TP3      O17974   4.330   4.431   9.214
 2316TP3     H117975   4.273   4.397   9.143
 2316TP3     H217976   4.407   4.461   9.161
 2317TP3      O17977   4.651   4.902   9.407
 2317TP3     H117978   4.583   4.844   9.369
 2317TP3     H217979   4.631   4.900   9.502
 2318TP3      O17980   5.043   4.176   9.214
 2318TP3     H117981   4.946   4.187   9.210
 2318TP3     H217982   5.072   4.253   9.268
 2319TP3      O17983   5.113   4.368   9.378
 2319TP3     H117984   5.200   4.357   9.418
 2319TP3     H217985   5.120   4.450   9.327
 2320TP3      O17986   4.869   5.037   9.307
 2320TP3     H117987   4.826   5.120   9.333
 2320TP3     H217988   4.799   4.973   9.334
 2321TP3      O17989   5.445   5.245   9.397
 2321TP3     H117990   5.414   5.159   9.426
 2321TP3     H217991   5.488   5.229   9.314
 2322TP3      O17992   3.981   4.666   9.165
 2322TP3     H117993   4.039   4.719   9.225
 2322TP3     H217994   3.894   4.688   9.201
 2323TP3      O17995   5.187   5.061   9.192
 2323TP3     H117996   5.200   5.034   9.283
 2323TP3     H217997   5.090   5.053   9.186
 2324TP3      O17998   4.597   5.173   9.030
 2324TP3     H117999   4.599   5.092   8.977
 2324TP3     H218000   4.549   5.141   9.110
 2325TP3      O18001   4.462   5.134   9.275
 2325TP3     H118002   4.496   5.084   9.352
 2325TP3     H218003   4.485   5.225   9.302
 2326TP3      O18004   4.105   4.850   9.314
 2326TP3     H118005   4.056   4.879   9.391
 2326TP3     H218006   4.172   4.920   9.302
 2327TP3      O18007   4.711   5.264   9.297
 2327TP3     H118008   4.642   5.329   9.322
 2327TP3     H218009   4.778   5.324   9.258
 2328TP3      O18010   4.502   5.404   9.359
 2328TP3     H118011   4.484   5.477   9.298
 2328TP3     H218012   4.451   5.430   9.437
 2329TP3      O18013   4.339   4.054   9.291
 2329TP3     H118014   4.315   4.136   9.335
 2329TP3     H218015   4.432   4.040   9.319
 2330TP3      O18016   4.173   5.108   9.213
 2330TP3     H118017   4.234   5.174   9.247
 2330TP3     H218018   4.234   5.064   9.151
 2331TP3      O18019   4.007   4.389   9.138
 2331TP3     H118020   4.011   4.485   9.157
 2331TP3     H218021   3.919   4.375   9.104
 2332TP3      O18022   4.794   5.361   9.048
 2332TP3     H118023   4.724   5.295   9.066
 2332TP3     H218024   4.867   5.303   9.021
 2333TP3      O18025   5.244   5.328   9.055
 2333TP3     H118026   5.276   5.261   9.116
 2333TP3     H218027   5.323   5.348   8.999
 2334TP3      O18028   4.337   4.925   9.045
 2334TP3     H118029   4.355   4.853   9.107
 2334TP3     H218030   4.415   4.919   8.987
 2335TP3      O18031   4.886   5.042   9.028
 2335TP3     H118032   4.859   5.047   9.122
 2335TP3     H218033   4.861   4.948   9.008
 2336TP3      O18034   4.455   4.730   9.282
 2336TP3     H118035   4.409   4.673   9.346
 2336TP3     H218036   4.489   4.666   9.215
 2337TP3      O18037   4.565   4.551   9.104
 2337TP3     H118038   4.556   4.554   9.006
 2337TP3     H218039   4.663   4.555   9.115
 2338TP3      O18040   5.480   4.777   9.064
 2338TP3     H118041   5.468   4.746   8.971
 2338TP3     H218042   5.505   4.871   9.052
 2339TP3      O18043   3.900   5.067   9.170
 2339TP3     H118044   3.995   5.088   9.186
 2339TP3     H218045   3.909   5.007   9.093
 2340TP3      O18046   5.462   4.395   9.128
 2340TP3     H118047   5.457   4.453   9.051
 2340TP3     H218048   5.430   4.310   9.091
 2341TP3      O18049   5.374   4.151   9.050
 2341TP3     H118050   5.429   4.093   9.103
 2341TP3     H218051   5.289   4.104   9.051
 2342TP3      O18052   3.937   3.826   9.293
 2342TP3     H118053   3.995   3.888   9.245
 2342TP3     H218054   3.891   3.890   9.347
 2343TP3      O18055   3.930   5.377   9.398
 2343TP3     H118056   3.861   5.398   9.330
 2343TP3     H218057   3.954   5.469   9.417
 2344TP3      O18058   4.115   4.028   9.143
 2344TP3     H118059   4.163   3.962   9.090
 2344TP3     H218060   4.182   4.046   9.212
 2345TP3      O18061   4.624   4.020   9.379
 2345TP3     H118062   4.635   3.971   9.462
 2345TP3     H218063   4.617   4.113   9.415
 2346TP3      O18064   4.092   5.484   9.097
 2346TP3     H118065   4.070   5.532   9.179
 2346TP3     H218066   4.181   5.452   9.117
 2347TP3      O18067   1.202   0.994  10.076
 2347TP3     H118068   1.196   1.092  10.077
 2347TP3     H218069   1.126   0.971  10.019
 2348TP3      O18070   1.085   0.913   0.110
 2348TP3     H118071   1.086   0.853   0.187
 2348TP3     H218072   1.041   0.861   0.041
 2349TP3      O18073   0.318   0.887   0.270
 2349TP3     H118074   0.325   0.814   0.335
 2349TP3     H218075   0.396   0.940   0.292
 2350TP3      O18076   1.448   1.210  10.260
 2350TP3     H118077   1.411   1.138  10.312
 2350TP3     H218078   1.456   1.280  10.327
 2351TP3      O18079   0.406   1.331   0.112
 2351TP3     H118080   0.381   1.240   0.084
 2351TP3     H218081   0.502   1.316   0.116
 2352TP3      O18082   0.087   0.697   9.958
 2352TP3     H118083   0.028   0.769   9.986
 2352TP3     H218084   0.026   0.624   9.948
 2353TP3      O18085   0.153   0.907  10.206
 2353TP3     H118086   0.183   0.822  10.244
 2353TP3     H218087   0.217   0.924  10.137
 2354TP3      O18088   1.161   1.732  10.283
 2354TP3     H118089   1.226   1.666  10.248
 2354TP3     H218090   1.142   1.688  10.367
 2355TP3      O18091   0.922   1.154   0.169
 2355TP3     H118092   0.954   1.095   0.099
 2355TP3     H218093   1.007   1.172   0.214
 2356TP3      O18094   1.775   0.317   0.235
 2356TP3     H118095   1.799   0.378   0.309
 2356TP3     H218096   1.836   0.354   0.169
 2357TP3      O18097   1.238   0.603   0.199
 2357TP3     H118098   1.257   0.508   0.202
 2357TP3     H218099   1.229   0.616   0.103
 2358TP3      O18100   0.545   0.416  10.228
 2358TP3     H118101   0.563   0.496  10.173
 2358TP3     H218102   0.516   0.351  10.161
 2359TP3      O18103   1.327   0.412  10.061
 2359TP3     H118104   1.388   0.386  10.134
 2359TP3     H218105   1.379   0.482  10.019
 2360TP3      O18106   0.233   0.665  10.293
 2360TP3     H118107   0.282   0.600  10.346
 2360TP3     H218108   0.233   0.622  10.206
 2361TP3      O18109   0.724   0.809  10.240
 2361TP3     H118110   0.795   0.751  10.272
 2361TP3     H218111   0.677   0.747  10.181
 2362TP3      O18112   1.823   0.467   0.451
 2362TP3     H118113   1.763   0.545   0.448
 2362TP3     H218114   1.836   0.453   0.546
 2363TP3      O18115   0.445   0.311   0.321
 2363TP3     H118116   0.418   0.365   0.244
 2363TP3     H218117   0.370   0.326   0.384
 2364TP3      O18118   1.162   1.249   9.985
 2364TP3     H118119   1.144   1.228   9.892
 2364TP3     H218120   1.137   1.344   9.992
 2365TP3      O18121   0.689   1.065   0.338
 2365TP3     H118122   0.620   1.127   0.368
 2365TP3     H218123   0.759   1.127   0.310
 2366TP3      O18124   1.503   0.371  10.272
 2366TP3     H118125   1.481   0.289  10.318
 2366TP3     H218126   1.575   0.404  10.328
 2367TP3      O18127   0.396   0.491   0.119
 2367TP3     H118128   0.459   0.557   0.154
 2367TP3     H218129   0.451   0.451   0.046
 2368TP3      O18130   0.540   1.269   0.416
 2368TP3     H118131   0.533   1.363   0.389
 2368TP3     H218132   0.454   1.259   0.462
 2369TP3      O18133   0.142   1.223   9.815
 2369TP3     H118134   0.124   1.254   9.724
 2369TP3     H218135   0.152   1.306   9.864
 2370TP3      O18136   1.504   1.398   0.178
 2370TP3     H118137   1.407   1.410   0.190
 2370TP3     H218138   1.531   1.488   0.153
 2371TP3      O18139   1.533   0.219   0.322
 2371TP3     H118140   1.467   0.287   0.302
 2371TP3     H218141   1.610   0.254   0.272
 2372TP3      O18142   0.844   0.068   0.058
 2372TP3     H118143   0.842  -0.030   0.060
 2372TP3     H218144   0.753   0.087   0.089
 2373TP3      O18145   1.331   1.577  10.152
 2373TP3     H118146   1.369   1.502  10.101
 2373TP3     H218147   1.386   1.651  10.117
 2374TP3      O18148   1.454   1.367  10.004
 2374TP3     H118149   1.424   1.300   9.940
 2374TP3     H218150   1.457   1.316  10.087
 2375TP3      O18151   1.610   1.230   0.539
 2375TP3     H118152   1.629   1.159   0.472
 2375TP3     H218153   1.635   1.310   0.489
 2376TP3      O18154   1.063   0.916   9.825
 2376TP3     H118155   0.998   0.978   9.785
 2376TP3     H218156   1.139   0.924   9.764
 2377TP3      O18157   1.069   0.777   9.544
 2377TP3     H118158   1.144   0.781   9.605
 2377TP3     H218159   1.103   0.713   9.481
 2378TP3      O18160   1.805   0.862   0.338
 2378TP3     H118161   1.741   0.935   0.340
 2378TP3     H218162   1.859   0.887   0.260
 2379TP3      O18163   1.414   0.934   9.925
 2379TP3     H118164   1.340   0.960   9.985
 2379TP3     H218165   1.463   0.870   9.980
 2380TP3      O18166   1.405   0.753   0.520
 2380TP3     H118167   1.402   0.835   0.572
 2380TP3     H218168   1.344   0.779   0.449
 2381TP3      O18169   0.576   1.005  10.114
 2381TP3     H118170   0.542   0.965  10.030
 2381TP3     H218171   0.635   0.934  10.149
 2382TP3      O18172   0.700   1.334   0.066
 2382TP3     H118173   0.705   1.290  -0.020
 2382TP3     H218174   0.782   1.304   0.110
 2383TP3      O18175   0.603   0.876   0.168
 2383TP3     H118176   0.653   0.884   0.084
 2383TP3     H218177   0.644   0.945   0.225
 2384TP3      O18178   1.248   1.439   0.236
 2384TP3     H118179   1.217   1.504   0.300
 2384TP3     H218180   1.224   1.353   0.278
 2385TP3      O18181   0.700   1.321   0.635
 2385TP3     H118182   0.650   1.388   0.686
 2385TP3     H218183   0.636   1.299   0.563
 2386TP3      O18184   1.303   0.861   9.690
 2386TP3     H118185   1.355   0.882   9.771
 2386TP3     H218186   1.344   0.916   9.620
 2387TP3      O18187   0.396   0.936   0.552
 2387TP3     H118188   0.401   1.009   0.616
 2387TP3     H218189   0.301   0.942   0.528
 2388TP3      O18190   1.070   1.526  10.038
 2388TP3     H118191   1.109   1.563  10.118
 2388TP3     H218192   1.019   1.599  10.001
 2389TP3      O18193   0.525   1.518   0.711
 2389TP3     H118194   0.515   1.512   0.614
 2389TP3     H218195   0.432   1.510   0.740
 2390TP3      O18196   1.647   0.053   9.657
 2390TP3     H118197   1.558   0.056   9.698
 2390TP3     H218198   1.664   0.145   9.634
 2391TP3      O18199   0.474   0.903   9.869
 2391TP3     H118200   0.437   0.981   9.823
 2391TP3     H218201   0.408   0.835   9.850
 2392TP3      O18202   1.809   1.458   9.562
 2392TP3     H118203   1.802   1.552   9.539
 2392TP3     H218204   1.894   1.436   9.522
 2393TP3      O18205   0.100   1.149   0.444
 2393TP3     H118206   0.056   1.141   0.358
 2393TP3     H218207   0.085   1.058   0.475
 2394TP3      O18208   0.069   1.437   0.109
 2394TP3     H118209   0.153   1.395   0.132
 2394TP3     H218210   0.052   1.491   0.187
 2395TP3      O18211   1.876   1.492   0.699
 2395TP3     H118212   1.863   1.396   0.694
 2395TP3     H218213   1.788   1.518   0.735
 2396TP3      O18214   0.971   1.443   0.583
 2396TP3     H118215   0.976   1.527   0.634
 2396TP3     H218216   0.884   1.406   0.608
 2397TP3      O18217   1.012   1.820   9.876
 2397TP3     H118218   1.011   1.818   9.779
 2397TP3     H218219   1.025   1.914   9.895
 2398TP3      O18220   0.383   1.708  10.064
 2398TP3     H118221   0.396   1.662  10.150
 2398TP3     H218222   0.300   1.667  10.034
 2399TP3      O18223   1.304   1.750   9.578
 2399TP3     H118224   1.356   1.680   9.532
 2399TP3     H218225   1.326   1.725   9.669
 2400TP3      O18226   1.292   1.738   9.858
 2400TP3     H118227   1.196   1.743   9.875
 2400TP3     H218228   1.315   1.659   9.910
 2401TP3      O18229   1.566   0.644   0.744
 2401TP3     H118230   1.534   0.681   0.659
 2401TP3     H218231   1.591   0.552   0.722
 2402TP3      O18232   0.311   1.282   0.550
 2402TP3     H118233   0.317   1.247   0.641
 2402TP3     H218234   0.223   1.245   0.523
 2403TP3      O18235   0.589   0.137   0.149
 2403TP3     H118236   0.507   0.118   0.099
 2403TP3     H218237   0.556   0.213   0.200
 2404TP3      O18238   1.037   0.108   0.477
 2404TP3     H118239   1.081   0.061   0.548
 2404TP3     H218240   0.943   0.082   0.489
 2405TP3      O18241   1.362   0.476   0.554
 2405TP3     H118242   1.314   0.456   0.639
 2405TP3     H218243   1.357   0.572   0.545
 2406TP3      O18244   1.449   0.970   9.484
 2406TP3     H118245   1.445   0.962   9.388
 2406TP3     H218246   1.536   1.012   9.493
 2407TP3      O18247   1.017   0.356   9.551
 2407TP3     H118248   0.980   0.339   9.639
 2407TP3     H218249   1.013   0.270   9.507
 2408TP3      O18250   0.583   0.626   0.270
 2408TP3     H118251   0.510   0.629   0.334
 2408TP3     H218252   0.578   0.716   0.229
 2409TP3      O18253   0.580   0.632  10.068
 2409TP3     H118254   0.485   0.610  10.057
 2409TP3     H218255   0.616   0.607   9.980
 2410TP3      O18256   1.138   0.688   9.937
 2410TP3     H118257   1.098   0.772   9.906
 2410TP3     H218258   1.204   0.669   9.868
 2411TP3      O18259   1.038   0.710   0.770
 2411TP3     H118260   0.991   0.628   0.800
 2411TP3     H218261   1.123   0.701   0.818
 2412TP3      O18262   1.239   0.638  10.233
 2412TP3     H118263   1.206   0.695  10.161
 2412TP3     H218264   1.244   0.554  10.186
 2413TP3      O18265   0.338   0.649   0.429
 2413TP3     H118266   0.356   0.685   0.517
 2413TP3     H218267   0.306   0.560   0.449
 2414TP3      O18268   0.692   0.433   9.479
 2414TP3     H118269   0.638   0.360   9.518
 2414TP3     H218270   0.640   0.467   9.405
 2415TP3      O18271   0.037   0.406  10.125
 2415TP3     H118272   0.074   0.379  10.211
 2415TP3     H218273   0.069   0.337  10.064
 2416TP3      O18274   0.140   0.444   9.676
 2416TP3     H118275   0.197   0.497   9.615
 2416TP3     H218276   0.072   0.509   9.698
 2417TP3      O18277   1.152   0.791   0.362
 2417TP3     H118278   1.195   0.721   0.307
 2417TP3     H218279   1.103   0.740   0.429
 2418TP3      O18280   0.842   0.414  10.172
 2418TP3     H118281   0.749   0.389  10.189
 2418TP3     H218282   0.883   0.368  10.247
 2419TP3      O18283   0.317   0.546  10.058
 2419TP3     H118284   0.229   0.566  10.020
 2419TP3     H218285   0.340   0.464  10.012
 2420TP3      O18286   0.678   0.555   9.816
 2420TP3     H118287   0.774   0.564   9.831
 2420TP3     H218288   0.656   0.620   9.746
 2421TP3      O18289   1.281   0.305   0.175
 2421TP3     H118290   1.211   0.321   0.242
 2421TP3     H218291   1.231   0.289   0.094
 2422TP3      O18292   0.550   0.678   9.578
 2422TP3     H118293   0.497   0.636   9.508
 2422TP3     H218294   0.635   0.692   9.533
 2423TP3      O18295   1.593   1.879   0.809
 2423TP3     H118296   1.621   1.916   0.722
 2423TP3     H218297   1.666   1.911   0.864
 2424TP3      O18298   0.380   1.120   0.763
 2424TP3     H118299   0.447   1.150   0.827
 2424TP3     H218300   0.300   1.128   0.820
 2425TP3      O18301   0.964   0.668   0.040
 2425TP3     H118302   1.022   0.613  -0.013
 2425TP3     H218303   0.947   0.612   0.117
 2426TP3      O18304   0.467   0.280  10.008
 2426TP3     H118305   0.431   0.190  10.007
 2426TP3     H218306   0.542   0.270   9.947
 2427TP3      O18307   0.827   0.497   0.282
 2427TP3     H118308   0.746   0.552   0.289
 2427TP3     H218309   0.885   0.535   0.350
 2428TP3      O18310   0.884   1.118   9.773
 2428TP3     H118311   0.802   1.072   9.742
 2428TP3     H218312   0.861   1.137   9.866
 2429TP3      O18313   1.614   1.047   0.332
 2429TP3     H118314   1.664   1.098   0.265
 2429TP3     H218315   1.525   1.044   0.290
 2430TP3      O18316   1.278   0.403   9.583
 2430TP3     H118317   1.182   0.409   9.570
 2430TP3     H218318   1.303   0.489   9.622
 2431TP3      O18319   1.035   1.155   0.577
 2431TP3     H118320   1.002   1.106   0.653
 2431TP3     H218321   1.004   1.245   0.593
 2432TP3      O18322   1.344   0.594   9.752
 2432TP3     H118323   1.432   0.580   9.794
 2432TP3     H218324   1.357   0.676   9.703
 2433TP3      O18325   0.401   1.066   0.034
 2433TP3     H118326   0.460   1.057  -0.043
 2433TP3     H218327   0.407   0.979   0.077
 2434TP3      O18328   1.095   1.265   9.683
 2434TP3     H118329   1.055   1.351   9.707
 2434TP3     H218330   1.022   1.202   9.697
 2435TP3      O18331   0.111   0.893   0.548
 2435TP3     H118332   0.134   0.854   0.634
 2435TP3     H218333   0.039   0.837   0.516
 2436TP3      O18334   0.797   0.860   0.771
 2436TP3     H118335   0.762   0.820   0.690
 2436TP3     H218336   0.887   0.823   0.772
 2437TP3      O18337   1.271   1.393   0.576
 2437TP3     H118338   1.179   1.409   0.550
 2437TP3     H218339   1.264   1.424   0.669
 2438TP3      O18340   1.829   0.611   9.730
 2438TP3     H118341   1.771   0.585   9.657
 2438TP3     H218342   1.841   0.707   9.709
 2439TP3      O18343   1.831   1.195   0.688
 2439TP3     H118344   1.742   1.218   0.653
 2439TP3     H218345   1.885   1.188   0.605
 2440TP3      O18346   1.643   1.496   9.763
 2440TP3     H118347   1.624   1.408   9.799
 2440TP3     H218348   1.701   1.476   9.686
 2441TP3      O18349   1.385   0.973   0.163
 2441TP3     H118350   1.291   0.957   0.145
 2441TP3     H218351   1.428   0.902   0.111
 2442TP3      O18352   0.631   1.412  10.097
 2442TP3     H118353   0.683   1.489  10.067
 2442TP3     H218354   0.547   1.427  10.053
 2443TP3      O18355   0.210   0.879   9.567
 2443TP3     H118356   0.269   0.955   9.585
 2443TP3     H218357   0.123   0.921   9.570
 2444TP3      O18358   0.772   1.179  10.033
 2444TP3     H118359   0.737   1.268  10.048
 2444TP3     H218360   0.709   1.123  10.082
 2445TP3      O18361   0.819   1.598   0.365
 2445TP3     H118362   0.875   1.672   0.338
 2445TP3     H218363   0.878   1.555   0.429
 2446TP3      O18364   0.645   1.669   9.994
 2446TP3     H118365   0.548   1.682  10.005
 2446TP3     H218366   0.680   1.756  10.013
 2447TP3      O18367   1.166   1.189   0.324
 2447TP3     H118368   1.141   1.172   0.417
 2447TP3     H218369   1.232   1.120   0.306
 2448TP3      O18370   1.406   1.301   9.560
 2448TP3     H118371   1.429   1.251   9.641
 2448TP3     H218372   1.312   1.281   9.557
 2449TP3      O18373   1.459   1.650   0.572
 2449TP3     H118374   1.387   1.601   0.530
 2449TP3     H218375   1.474   1.719   0.504
 2450TP3      O18376   1.849   1.744   9.576
 2450TP3     H118377   1.919   1.807   9.552
 2450TP3     H218378   1.779   1.803   9.609
 2451TP3      O18379   0.257   0.373   0.508
 2451TP3     H118380   0.170   0.413   0.522
 2451TP3     H218381   0.250   0.291   0.560
 2452TP3      O18382   1.482   1.161   9.780
 2452TP3     H118383   1.460   1.077   9.826
 2452TP3     H218384   1.578   1.167   9.796
 2453TP3      O18385   0.229   1.551   0.347
 2453TP3     H118386   0.254   1.458   0.353
 2453TP3     H218387   0.245   1.581   0.437
 2454TP3      O18388   0.692   1.364   9.646
 2454TP3     H118389   0.730   1.307   9.714
 2454TP3     H218390   0.706   1.455   9.681
 2455TP3      O18391   0.349   1.085   9.689
 2455TP3     H118392   0.282   1.127   9.748
 2455TP3     H218393   0.403   1.162   9.663
 2456TP3      O18394   1.140   0.350   0.410
 2456TP3     H118395   1.207   0.358   0.480
 2456TP3     H218396   1.094   0.267   0.436
 2457TP3      O18397   1.215   0.301   9.842
 2457TP3     H118398   1.231   0.352   9.760
 2457TP3     H218399   1.271   0.350   9.905
 2458TP3      O18400   0.978   1.531   9.728
 2458TP3     H118401   0.891   1.575   9.720
 2458TP3     H218402   1.030   1.568   9.654
 2459TP3      O18403   0.934   0.481   9.917
 2459TP3     H118404   1.006   0.547   9.922
 2459TP3     H218405   0.901   0.474  10.009
 2460TP3      O18406   0.991   0.589   0.525
 2460TP3     H118407   1.002   0.644   0.605
 2460TP3     H218408   1.057   0.520   0.531
 2461TP3      O18409   1.013   0.187  10.008
 2461TP3     H118410   0.982   0.254  10.071
 2461TP3     H218411   1.083   0.238   9.961
 2462TP3      O18412   0.718   1.629   9.720
 2462TP3     H118413   0.734   1.713   9.671
 2462TP3     H218414   0.687   1.662   9.808
 2463TP3      O18415   0.580   0.299   9.680
 2463TP3     H118416   0.574   0.391   9.712
 2463TP3     H218417   0.670   0.279   9.714
 2464TP3      O18418   1.602   0.375   0.605
 2464TP3     H118419   1.510   0.407   0.590
 2464TP3     H218420   1.636   0.371   0.514
 2465TP3      O18421   1.468   0.753   0.002
 2465TP3     H118422   1.386   0.705  -0.021
 2465TP3     H218423   1.520   0.686   0.053
 2466TP3      O18424   0.406   1.350   9.574
 2466TP3     H118425   0.473   1.406   9.613
 2466TP3     H218426   0.460   1.295   9.514
 2467TP3      O18427   0.242   0.613   9.492
 2467TP3     H118428   0.251   0.708   9.513
 2467TP3     H218429   0.153   0.604   9.461
 2468TP3      O18430   1.574   1.683   0.169
 2468TP3     H118431   1.568   1.750   0.097
 2468TP3     H218432   1.670   1.684   0.187
 2469TP3      O18433   0.347   0.125   0.021
 2469TP3     H118434   0.309   0.119  -0.069
 2469TP3     H218435   0.291   0.056   0.063
 2470TP3      O18436   0.220   1.485   9.976
 2470TP3     H118437   0.130   1.520   9.970
 2470TP3     H218438   0.258   1.531   9.900
 2471TP3      O18439   0.149   1.749   0.794
 2471TP3     H118440   0.202   1.721   0.870
 2471TP3     H218441   0.097   1.669   0.777
 2472TP3      O18442   0.612   1.641   0.950
 2472TP3     H118443   0.684   1.589   0.987
 2472TP3     H218444   0.605   1.608   0.858
 2473TP3      O18445   1.068   1.588   9.484
 2473TP3     H118446   0.983   1.546   9.460
 2473TP3     H218447   1.122   1.557   9.410
 2474TP3      O18448   1.249   1.482   0.834
 2474TP3     H118449   1.219   1.393   0.863
 2474TP3     H218450   1.330   1.493   0.889
 2475TP3      O18451   1.440   1.578   9.441
 2475TP3     H118452   1.469   1.498   9.490
 2475TP3     H218453   1.523   1.589   9.389
 2476TP3      O18454   0.143   1.148   0.872
 2476TP3     H118455   0.148   1.050   0.877
 2476TP3     H218456   0.055   1.162   0.835
 2477TP3      O18457   0.566   1.167   9.435
 2477TP3     H118458   0.576   1.083   9.481
 2477TP3     H218459   0.616   1.148   9.353
 2478TP3      O18460   0.799   1.126   0.832
 2478TP3     H118461   0.766   1.161   0.746
 2478TP3     H218462   0.802   1.028   0.818
 2479TP3      O18463   1.366   1.107   0.573
 2479TP3     H118464   1.449   1.160   0.574
 2479TP3     H218465   1.301   1.180   0.575
 2480TP3      O18466   0.213   0.842   0.834
 2480TP3     H118467   0.268   0.762   0.830
 2480TP3     H218468   0.198   0.849   0.930
 2481TP3      O18469   0.690   0.967   9.662
 2481TP3     H118470   0.631   0.912   9.718
 2481TP3     H218471   0.722   0.900   9.597
 2482TP3      O18472   0.606   0.740   0.565
 2482TP3     H118473   0.547   0.813   0.592
 2482TP3     H218474   0.653   0.779   0.489
 2483TP3      O18475   0.796   0.791   9.475
 2483TP3     H118476   0.791   0.766   9.382
 2483TP3     H218477   0.894   0.793   9.492
 2484TP3      O18478   1.122   1.004   0.910
 2484TP3     H118479   1.215   0.994   0.883
 2484TP3     H218480   1.104   0.922   0.958
 2485TP3      O18481   1.702   1.039   9.423
 2485TP3     H118482   1.697   0.986   9.341
 2485TP3     H218483   1.734   1.125   9.395
 2486TP3      O18484   0.662   0.481   0.669
 2486TP3     H118485   0.668   0.413   0.600
 2486TP3     H218486   0.645   0.562   0.617
 2487TP3      O18487   0.697   0.321   0.430
 2487TP3     H118488   0.744   0.368   0.357
 2487TP3     H218489   0.606   0.312   0.393
 2488TP3      O18490   0.844   0.872   0.453
 2488TP3     H118491   0.920   0.855   0.397
 2488TP3     H218492   0.806   0.953   0.415
 2489TP3      O18493   1.284   0.641   0.945
 2489TP3     H118494   1.313   0.548   0.935
 2489TP3     H218495   1.371   0.685   0.952
 2490TP3      O18496   1.419   0.929   0.773
 2490TP3     H118497   1.395   0.995   0.705
 2490TP3     H218498   1.515   0.918   0.753
 2491TP3      O18499   0.496   0.608   0.863
 2491TP3     H118500   0.425   0.542   0.852
 2491TP3     H218501   0.563   0.573   0.801
 2492TP3      O18502   0.769   0.065   0.469
 2492TP3     H118503   0.753   0.162   0.463
 2492TP3     H218504   0.695   0.032   0.419
 2493TP3      O18505   0.901   0.494   0.835
 2493TP3     H118506   0.865   0.468   0.921
 2493TP3     H218507   0.825   0.474   0.777
 2494TP3      O18508   1.173   0.405   0.744
 2494TP3     H118509   1.076   0.412   0.757
 2494TP3     H218510   1.199   0.348   0.820
 2495TP3      O18511   1.313   0.282   0.928
 2495TP3     H118512   1.328   0.185   0.928
 2495TP3     H218513   1.304   0.304   1.023
 2496TP3      O18514   0.317   0.388   0.844
 2496TP3     H118515   0.333   0.310   0.787
 2496TP3     H218516   0.293   0.348   0.930
 2497TP3      O18517   0.764   5.520   0.730
 2497TP3     H118518   0.844   5.466   0.745
 2497TP3     H218519   0.776   5.549   0.637
 2498TP3      O18520   0.835   0.170   0.948
 2498TP3     H118521   0.817   0.112   0.873
 2498TP3     H218522   0.765   0.238   0.939
 2499TP3      O18523   0.773   1.858   9.581
 2499TP3     H118524   0.870   1.861   9.588
 2499TP3     H218525   0.756   1.916   9.506
 2500TP3      O18526   0.140   1.293   9.543
 2500TP3     H118527   0.232   1.326   9.556
 2500TP3     H218528   0.145   1.263   9.453
 2501TP3      O18529   5.580   1.849  10.026
 2501TP3     H118530   5.502   1.815   9.977
 2501TP3     H218531   5.582   1.782  10.097
 2502TP3      O18532   0.087   1.667  10.215
 2502TP3     H118533   0.062   1.575  10.235
 2502TP3     H218534   0.127   1.694  10.301
 2503TP3      O18535   1.847   1.745   0.188
 2503TP3     H118536   1.852   1.756   0.285
 2503TP3     H218537   1.917   1.804   0.160
 2504TP3      O18538   1.801   1.703   0.485
 2504TP3     H118539   1.755   1.626   0.444
 2504TP3     H218540   1.843   1.658   0.560
 2505TP3      O18541   1.646   1.273   0.955
 2505TP3     H118542   1.554   1.275   0.989
 2505TP3     H218543   1.683   1.355   0.992
 2506TP3      O18544   1.782   1.110   9.807
 2506TP3     H118545   1.867   1.150   9.832
 2506TP3     H218546   1.774   1.043   9.878
 2507TP3      O18547   1.811   0.918  10.000
 2507TP3     H118548   1.734   0.868  10.037
 2507TP3     H218549   1.871   0.926  10.078
 2508TP3      O18550   1.788   1.185   0.182
 2508TP3     H118551   1.867   1.143   0.143
 2508TP3     H218552   1.807   1.280   0.168
 2509TP3      O18553   1.646   1.476   0.408
 2509TP3     H118554   1.578   1.512   0.467
 2509TP3     H218555   1.593   1.439   0.335
 2510TP3      O18556   1.842   0.896   9.637
 2510TP3     H118557   1.777   0.928   9.572
 2510TP3     H218558   1.833   0.966   9.705
 2511TP3      O18559   1.629   0.625   9.499
 2511TP3     H118560   1.685   0.683   9.445
 2511TP3     H218561   1.658   0.541   9.463
 2512TP3      O18562   1.594   0.765  10.062
 2512TP3     H118563   1.581   0.669  10.050
 2512TP3     H218564   1.568   0.778  10.156
 2513TP3      O18565   0.094   0.964   0.153
 2513TP3     H118566   0.107   0.969   0.056
 2513TP3     H218567   0.186   0.950   0.184
 2514TP3      O18568   1.681   0.961   0.715
 2514TP3     H118569   1.742   0.884   0.718
 2514TP3     H218570   1.743   1.037   0.713
 2515TP3      O18571   1.835   0.748   0.734
 2515TP3     H118572   1.747   0.718   0.764
 2515TP3     H218573   1.888   0.679   0.779
 2516TP3      O18574   1.561   0.532   9.906
 2516TP3     H118575   1.585   0.436   9.918
 2516TP3     H218576   1.641   0.564   9.863
 2517TP3      O18577   1.628   0.579   0.134
 2517TP3     H118578   1.724   0.601   0.132
 2517TP3     H218579   1.612   0.590   0.230
 2518TP3      O18580   1.631   0.649   0.398
 2518TP3     H118581   1.547   0.677   0.441
 2518TP3     H218582   1.679   0.734   0.386
 2519TP3      O18583   0.078   0.494   0.760
 2519TP3     H118584   0.167   0.467   0.788
 2519TP3     H218585   0.021   0.419   0.785
 2520TP3      O18586   1.852   0.085   0.942
 2520TP3     H118587   1.890   0.011   0.890
 2520TP3     H218588   1.860   0.155   0.873
 2521TP3      O18589   1.629   0.271   9.911
 2521TP3     H118590   1.654   0.218   9.990
 2521TP3     H218591   1.568   0.207   9.867
 2522TP3      O18592   0.165   0.335   0.051
 2522TP3     H118593   0.221   0.256   0.065
 2522TP3     H218594   0.226   0.402   0.085
 2523TP3      O18595   0.060   0.633   0.176
 2523TP3     H118596   0.101   0.619   0.088
 2523TP3     H218597   0.072   0.729   0.181
 2524TP3      O18598   1.815   0.262   0.759
 2524TP3     H118599   1.725   0.296   0.774
 2524TP3     H218600   1.800   0.205   0.683
 2525TP3      O18601   1.820   0.263   9.570
 2525TP3     H118602   1.848   0.193   9.510
 2525TP3     H218603   1.891   0.329   9.563
 2526TP3      O18604   0.075   0.257   9.865
 2526TP3     H118605  -0.021   0.278   9.872
 2526TP3     H218606   0.107   0.318   9.796
 2527TP3      O18607   1.515   1.753  10.073
 2527TP3     H118608   1.585   1.725  10.010
 2527TP3     H218609   1.566   1.803  10.139
 2528TP3      O18610   0.057   0.124   0.363
 2528TP3     H118611   0.010   0.117   0.447
 2528TP3     H218612   0.002   0.190   0.321
 2529TP3      O18613   0.260   1.451   0.809
 2529TP3     H118614   0.176   1.464   0.764
 2529TP3     H218615   0.236   1.423   0.898
 2530TP3      O18616   0.552   1.543   0.436
 2530TP3     H118617   0.520   1.632   0.412
 2530TP3     H218618   0.644   1.550   0.405
 2531TP3      O18619   0.983   1.686   0.720
 2531TP3     H118620   0.993   1.650   0.811
 2531TP3     H218621   1.074   1.717   0.700
 2532TP3      O18622   1.212   1.813   0.655
 2532TP3     H118623   1.288   1.759   0.630
 2532TP3     H218624   1.248   1.859   0.734
 2533TP3      O18625   1.683   0.080   0.579
 2533TP3     H118626   1.618   0.129   0.526
 2533TP3     H218627   1.719   0.014   0.516
 2534TP3      O18628   0.292   1.870   0.432
 2534TP3     H118629   0.217   1.917   0.389
 2534TP3     H218630   0.261   1.853   0.522
 2535TP3      O18631   0.541   1.828   0.337
 2535TP3     H118632   0.455   1.844   0.382
 2535TP3     H218633   0.532   1.889   0.263
 2536TP3      O18634   1.009   1.811   0.258
 2536TP3     H118635   0.973   1.872   0.194
 2536TP3     H218636   1.028   1.872   0.334
 2537TP3      O18637   1.234   1.687   0.368
 2537TP3     H118638   1.157   1.722   0.321
 2537TP3     H218639   1.293   1.764   0.359
 2538TP3      O18640   1.497   1.847   0.378
 2538TP3     H118641   1.502   1.943   0.357
 2538TP3     H218642   1.520   1.808   0.291
 2539TP3      O18643   0.239   1.732   0.117
 2539TP3     H118644   0.228   1.691   0.205
 2539TP3     H218645   0.319   1.684   0.085
 2540TP3      O18646   0.446   1.602  -0.006
 2540TP3     H118647   0.428   1.509   0.016
 2540TP3     H218648   0.532   1.614   0.039
 2541TP3      O18649   0.711   1.654   0.078
 2541TP3     H118650   0.724   1.560   0.054
 2541TP3     H218651   0.714   1.646   0.175
 2542TP3      O18652   1.059   0.222  10.308
 2542TP3     H118653   0.990   0.160  10.340
 2542TP3     H218654   1.113   0.162  10.256
 2543TP3      O18655   1.560   0.031  10.289
 2543TP3     H118656   1.626   0.088  10.244
 2543TP3     H218657   1.475   0.073  10.267
 2544TP3      O18658   1.744   0.155  10.140
 2544TP3     H118659   1.802   0.089  10.099
 2544TP3     H218660   1.800   0.235  10.149
 2545TP3      O18661   0.252   0.116  10.088
 2545TP3     H118662   0.198   0.073  10.020
 2545TP3     H218663   0.319   0.045  10.101
 2546TP3      O18664   0.180   0.095   9.657
 2546TP3     H118665   0.213   0.163   9.596
 2546TP3     H218666   0.116   0.142   9.712
 2547TP3      O18667   0.744   0.105  10.093
 2547TP3     H118668   0.837   0.118  10.072
 2547TP3     H218669   0.749   0.054  10.175
 2548TP3      O18670   1.326   0.095  10.209
 2548TP3     H118671   1.298   0.103  10.117
 2548TP3     H218672   1.287   0.011  10.239
 2549TP3      O18673   1.451   0.111   9.808
 2549TP3     H118674   1.367   0.147   9.776
 2549TP3     H218675   1.421   0.020   9.820
 2550TP3      O18676   0.175   1.654   9.765
 2550TP3     H118677   0.104   1.641   9.699
 2550TP3     H218678   0.170   1.751   9.775
 2551TP3      O18679   0.355   0.266   9.510
 2551TP3     H118680   0.392   0.186   9.467
 2551TP3     H218681   0.420   0.277   9.581
 2552TP3      O18682   0.839   0.271   9.770
 2552TP3     H118683   0.892   0.220   9.834
 2552TP3     H218684   0.857   0.361   9.804
 2553TP3      O18685   1.044   1.821   9.594
 2553TP3     H118686   1.142   1.810   9.592
 2553TP3     H218687   1.028   1.736   9.547
 2554TP3      O18688   1.708   1.729   9.879
 2554TP3     H118689   1.692   1.650   9.823
 2554TP3     H218690   1.699   1.801   9.813
 2555TP3      O18691   0.303   0.139   0.698
 2555TP3     H118692   0.240   0.077   0.740
 2555TP3     H218693   0.381   0.129   0.758
 2556TP3      O18694   0.492   0.092   0.879
 2556TP3     H118695   0.578   0.047   0.871
 2556TP3     H218696   0.443   0.013   0.912
 2557TP3      O18697   0.382   1.782   9.482
 2557TP3     H118698   0.317   1.777   9.553
 2557TP3     H218699   0.410   1.691   9.474
 2558TP3      O18700   1.333   5.546   0.883
 2558TP3     H118701   1.307   5.496   0.963
 2558TP3     H218702   1.423   5.517   0.869
 2559TP3      O18703   1.641   1.606   0.762
 2559TP3     H118704   1.562   1.594   0.705
 2559TP3     H218705   1.628   1.700   0.786
 2560TP3      O18706   3.087   0.994  10.076
 2560TP3     H118707   3.081   1.092  10.077
 2560TP3     H218708   3.012   0.971  10.019
 2561TP3      O18709   2.970   0.914   0.110
 2561TP3     H118710   2.970   0.854   0.186
 2561TP3     H218711   2.927   0.860   0.041
 2562TP3      O18712   2.205   0.887   0.267
 2562TP3     H118713   2.212   0.816   0.334
 2562TP3     H218714   2.281   0.942   0.292
 2563TP3      O18715   3.333   1.210  10.260
 2563TP3     H118716   3.297   1.138  10.312
 2563TP3     H218717   3.341   1.280  10.328
 2564TP3      O18718   2.296   1.333   0.109
 2564TP3     H118719   2.268   1.243   0.085
 2564TP3     H218720   2.392   1.317   0.115
 2565TP3      O18721   1.960   0.683   9.981
 2565TP3     H118722   1.913   0.768   9.977
 2565TP3     H218723   1.905   0.628   9.924
 2566TP3      O18724   2.036   0.909  10.204
 2566TP3     H118725   2.066   0.824  10.242
 2566TP3     H218726   2.097   0.922  10.131
 2567TP3      O18727   3.050   1.731  10.283
 2567TP3     H118728   3.116   1.664  10.251
 2567TP3     H218729   3.024   1.689  10.366
 2568TP3      O18730   2.808   1.154   0.169
 2568TP3     H118731   2.839   1.095   0.099
 2568TP3     H218732   2.892   1.172   0.214
 2569TP3      O18733   3.661   0.318   0.236
 2569TP3     H118734   3.686   0.379   0.309
 2569TP3     H218735   3.720   0.353   0.167
 2570TP3      O18736   3.124   0.601   0.199
 2570TP3     H118737   3.142   0.506   0.201
 2570TP3     H218738   3.114   0.616   0.103
 2571TP3      O18739   2.433   0.417  10.229
 2571TP3     H118740   2.449   0.496  10.173
 2571TP3     H218741   2.402   0.350  10.163
 2572TP3      O18742   3.213   0.412  10.062
 2572TP3     H118743   3.273   0.386  10.134
 2572TP3     H218744   3.265   0.482  10.018
 2573TP3      O18745   2.096   0.660  10.302
 2573TP3     H118746   2.161   0.607  10.351
 2573TP3     H218747   2.110   0.625  10.212
 2574TP3      O18748   2.611   0.810  10.241
 2574TP3     H118749   2.681   0.752  10.273
 2574TP3     H218750   2.564   0.748  10.182
 2575TP3      O18751   3.717   0.473   0.459
 2575TP3     H118752   3.652   0.545   0.448
 2575TP3     H218753   3.712   0.454   0.554
 2576TP3      O18754   2.333   0.311   0.316
 2576TP3     H118755   2.298   0.367   0.244
 2576TP3     H218756   2.262   0.321   0.385
 2577TP3      O18757   3.048   1.248   9.985
 2577TP3     H118758   3.030   1.227   9.892
 2577TP3     H218759   3.023   1.342   9.992
 2578TP3      O18760   2.576   1.067   0.336
 2578TP3     H118761   2.509   1.132   0.365
 2578TP3     H218762   2.648   1.126   0.306
 2579TP3      O18763   3.390   0.372  10.272
 2579TP3     H118764   3.367   0.288  10.314
 2579TP3     H218765   3.463   0.403  10.328
 2580TP3      O18766   2.285   0.494   0.119
 2580TP3     H118767   2.351   0.559   0.153
 2580TP3     H218768   2.337   0.452   0.045
 2581TP3      O18769   2.425   1.271   0.421
 2581TP3     H118770   2.418   1.363   0.389
 2581TP3     H218771   2.337   1.260   0.465
 2582TP3      O18772   2.025   1.224   9.816
 2582TP3     H118773   2.010   1.262   9.726
 2582TP3     H218774   2.037   1.305   9.869
 2583TP3      O18775   3.390   1.398   0.178
 2583TP3     H118776   3.293   1.410   0.190
 2583TP3     H218777   3.417   1.488   0.153
 2584TP3      O18778   3.420   0.219   0.323
 2584TP3     H118779   3.353   0.285   0.302
 2584TP3     H218780   3.496   0.253   0.271
 2585TP3      O18781   2.728   0.067   0.051
 2585TP3     H118782   2.738  -0.030   0.061
 2585TP3     H218783   2.639   0.079   0.089
 2586TP3      O18784   3.218   1.575  10.152
 2586TP3     H118785   3.256   1.501  10.100
 2586TP3     H218786   3.271   1.650  10.117
 2587TP3      O18787   3.339   1.367  10.004
 2587TP3     H118788   3.309   1.299   9.941
 2587TP3     H218789   3.342   1.316  10.087
 2588TP3      O18790   3.496   1.230   0.539
 2588TP3     H118791   3.514   1.159   0.473
 2588TP3     H218792   3.521   1.310   0.489
 2589TP3      O18793   2.948   0.916   9.824
 2589TP3     H118794   2.884   0.978   9.784
 2589TP3     H218795   3.024   0.924   9.764
 2590TP3      O18796   2.955   0.777   9.544
 2590TP3     H118797   3.030   0.781   9.605
 2590TP3     H218798   2.988   0.713   9.481
 2591TP3      O18799   3.690   0.861   0.337
 2591TP3     H118800   3.627   0.935   0.341
 2591TP3     H218801   3.744   0.887   0.260
 2592TP3      O18802   3.300   0.934   9.925
 2592TP3     H118803   3.226   0.960   9.985
 2592TP3     H218804   3.349   0.870   9.981
 2593TP3      O18805   3.290   0.752   0.523
 2593TP3     H118806   3.289   0.835   0.573
 2593TP3     H218807   3.230   0.778   0.451
 2594TP3      O18808   2.457   1.003  10.113
 2594TP3     H118809   2.427   0.963  10.028
 2594TP3     H218810   2.519   0.934  10.148
 2595TP3      O18811   2.588   1.336   0.065
 2595TP3     H118812   2.591   1.290  -0.020
 2595TP3     H218813   2.668   1.303   0.110
 2596TP3      O18814   2.487   0.875   0.168
 2596TP3     H118815   2.538   0.883   0.084
 2596TP3     H218816   2.529   0.944   0.224
 2597TP3      O18817   3.134   1.437   0.236
 2597TP3     H118818   3.106   1.501   0.302
 2597TP3     H218819   3.110   1.351   0.278
 2598TP3      O18820   2.585   1.321   0.635
 2598TP3     H118821   2.537   1.390   0.685
 2598TP3     H218822   2.522   1.299   0.563
 2599TP3      O18823   3.188   0.861   9.690
 2599TP3     H118824   3.240   0.882   9.771
 2599TP3     H218825   3.230   0.916   9.620
 2600TP3      O18826   2.282   0.935   0.543
 2600TP3     H118827   2.290   1.001   0.614
 2600TP3     H218828   2.185   0.936   0.532
 2601TP3      O18829   2.954   1.528  10.039
 2601TP3     H118830   2.995   1.563  10.119
 2601TP3     H218831   2.902   1.603  10.005
 2602TP3      O18832   2.413   1.520   0.708
 2602TP3     H118833   2.401   1.516   0.611
 2602TP3     H218834   2.321   1.505   0.738
 2603TP3      O18835   3.533   0.052   9.657
 2603TP3     H118836   3.444   0.056   9.697
 2603TP3     H218837   3.550   0.145   9.634
 2604TP3      O18838   2.351   0.903   9.874
 2604TP3     H118839   2.320   0.980   9.823
 2604TP3     H218840   2.289   0.834   9.848
 2605TP3      O18841   3.694   1.458   9.562
 2605TP3     H118842   3.689   1.552   9.539
 2605TP3     H218843   3.779   1.436   9.522
 2606TP3      O18844   1.962   1.148   0.456
 2606TP3     H118845   1.919   1.139   0.369
 2606TP3     H218846   1.976   1.053   0.475
 2607TP3      O18847   1.937   1.421   0.129
 2607TP3     H118848   2.033   1.409   0.127
 2607TP3     H218849   1.930   1.504   0.177
 2608TP3      O18850   3.762   1.492   0.698
 2608TP3     H118851   3.748   1.396   0.694
 2608TP3     H218852   3.674   1.518   0.735
 2609TP3      O18853   2.857   1.444   0.584
 2609TP3     H118854   2.862   1.528   0.635
 2609TP3     H218855   2.770   1.406   0.608
 2610TP3      O18856   2.903   1.818   9.871
 2610TP3     H118857   2.898   1.819   9.774
 2610TP3     H218858   2.907   1.913   9.895
 2611TP3      O18859   2.267   1.708  10.066
 2611TP3     H118860   2.283   1.665  10.153
 2611TP3     H218861   2.183   1.666  10.040
 2612TP3      O18862   3.189   1.750   9.578
 2612TP3     H118863   3.242   1.679   9.532
 2612TP3     H218864   3.212   1.725   9.670
 2613TP3      O18865   3.177   1.737   9.857
 2613TP3     H118866   3.082   1.743   9.874
 2613TP3     H218867   3.200   1.659   9.910
 2614TP3      O18868   3.475   0.640   0.745
 2614TP3     H118869   3.425   0.683   0.673
 2614TP3     H218870   3.473   0.546   0.718
 2615TP3      O18871   2.193   1.277   0.545
 2615TP3     H118872   2.214   1.245   0.635
 2615TP3     H218873   2.105   1.238   0.526
 2616TP3      O18874   2.473   0.135   0.153
 2616TP3     H118875   2.391   0.119   0.100
 2616TP3     H218876   2.443   0.212   0.202
 2617TP3      O18877   2.917   0.119   0.490
 2617TP3     H118878   2.968   0.054   0.540
 2617TP3     H218879   2.828   0.077   0.488
 2618TP3      O18880   3.252   0.477   0.563
 2618TP3     H118881   3.194   0.457   0.640
 2618TP3     H218882   3.241   0.572   0.545
 2619TP3      O18883   3.334   0.970   9.484
 2619TP3     H118884   3.331   0.962   9.388
 2619TP3     H218885   3.422   1.012   9.493
 2620TP3      O18886   2.902   0.356   9.551
 2620TP3     H118887   2.865   0.338   9.638
 2620TP3     H218888   2.898   0.270   9.507
 2621TP3      O18889   2.469   0.626   0.271
 2621TP3     H118890   2.394   0.629   0.333
 2621TP3     H218891   2.465   0.715   0.229
 2622TP3      O18892   2.468   0.632  10.067
 2622TP3     H118893   2.373   0.610  10.057
 2622TP3     H218894   2.502   0.606   9.979
 2623TP3      O18895   3.024   0.689   9.937
 2623TP3     H118896   2.984   0.772   9.905
 2623TP3     H218897   3.090   0.669   9.868
 2624TP3      O18898   2.920   0.710   0.769
 2624TP3     H118899   2.872   0.628   0.799
 2624TP3     H218900   3.005   0.701   0.817
 2625TP3      O18901   3.125   0.638  10.233
 2625TP3     H118902   3.093   0.696  10.161
 2625TP3     H218903   3.130   0.554  10.186
 2626TP3      O18904   2.229   0.648   0.427
 2626TP3     H118905   2.248   0.686   0.515
 2626TP3     H218906   2.190   0.562   0.451
 2627TP3      O18907   2.577   0.432   9.479
 2627TP3     H118908   2.524   0.359   9.519
 2627TP3     H218909   2.524   0.466   9.406
 2628TP3      O18910   1.903   0.370  10.149
 2628TP3     H118911   1.966   0.361  10.223
 2628TP3     H218912   1.947   0.323  10.077
 2629TP3      O18913   2.027   0.434   9.689
 2629TP3     H118914   2.081   0.486   9.626
 2629TP3     H218915   1.961   0.501   9.715
 2630TP3      O18916   3.038   0.791   0.362
 2630TP3     H118917   3.080   0.721   0.307
 2630TP3     H218918   2.989   0.740   0.429
 2631TP3      O18919   2.728   0.413  10.172
 2631TP3     H118920   2.636   0.387  10.188
 2631TP3     H218921   2.770   0.368  10.247
 2632TP3      O18922   2.200   0.544  10.057
 2632TP3     H118923   2.115   0.561  10.011
 2632TP3     H218924   2.231   0.463  10.013
 2633TP3      O18925   2.565   0.555   9.815
 2633TP3     H118926   2.660   0.564   9.831
 2633TP3     H218927   2.542   0.620   9.745
 2634TP3      O18928   3.167   0.306   0.175
 2634TP3     H118929   3.097   0.319   0.242
 2634TP3     H218930   3.116   0.284   0.095
 2635TP3      O18931   2.435   0.677   9.579
 2635TP3     H118932   2.380   0.636   9.510
 2635TP3     H218933   2.520   0.691   9.533
 2636TP3      O18934   3.479   1.879   0.809
 2636TP3     H118935   3.506   1.916   0.723
 2636TP3     H218936   3.552   1.911   0.864
 2637TP3      O18937   2.247   1.129   0.768
 2637TP3     H118938   2.321   1.151   0.826
 2637TP3     H218939   2.173   1.128   0.831
 2638TP3      O18940   2.850   0.669   0.040
 2638TP3     H118941   2.908   0.613  -0.012
 2638TP3     H218942   2.832   0.613   0.117
 2639TP3      O18943   2.350   0.280  10.009
 2639TP3     H118944   2.315   0.190  10.010
 2639TP3     H218945   2.424   0.270   9.947
 2640TP3      O18946   2.715   0.499   0.279
 2640TP3     H118947   2.632   0.551   0.289
 2640TP3     H218948   2.771   0.535   0.350
 2641TP3      O18949   2.770   1.117   9.773
 2641TP3     H118950   2.688   1.072   9.743
 2641TP3     H218951   2.746   1.138   9.866
 2642TP3      O18952   3.498   1.048   0.333
 2642TP3     H118953   3.549   1.098   0.265
 2642TP3     H218954   3.410   1.045   0.289
 2643TP3      O18955   3.164   0.403   9.583
 2643TP3     H118956   3.068   0.409   9.570
 2643TP3     H218957   3.189   0.489   9.622
 2644TP3      O18958   2.921   1.155   0.577
 2644TP3     H118959   2.886   1.106   0.652
 2644TP3     H218960   2.889   1.245   0.593
 2645TP3      O18961   3.230   0.594   9.752
 2645TP3     H118962   3.317   0.580   9.793
 2645TP3     H218963   3.243   0.676   9.703
 2646TP3      O18964   2.285   1.065   0.033
 2646TP3     H118965   2.347   1.053  -0.041
 2646TP3     H218966   2.291   0.980   0.080
 2647TP3      O18967   2.981   1.265   9.683
 2647TP3     H118968   2.941   1.351   9.707
 2647TP3     H218969   2.907   1.202   9.697
 2648TP3      O18970   1.983   0.902   0.555
 2648TP3     H118971   1.992   0.856   0.641
 2648TP3     H218972   1.918   0.843   0.512
 2649TP3      O18973   2.684   0.859   0.772
 2649TP3     H118974   2.648   0.820   0.691
 2649TP3     H218975   2.774   0.822   0.772
 2650TP3      O18976   3.156   1.393   0.576
 2650TP3     H118977   3.064   1.409   0.550
 2650TP3     H218978   3.150   1.424   0.669
 2651TP3      O18979   3.715   0.611   9.730
 2651TP3     H118980   3.657   0.585   9.657
 2651TP3     H218981   3.727   0.707   9.709
 2652TP3      O18982   3.717   1.194   0.688
 2652TP3     H118983   3.628   1.218   0.653
 2652TP3     H218984   3.770   1.189   0.605
 2653TP3      O18985   3.529   1.496   9.763
 2653TP3     H118986   3.510   1.408   9.799
 2653TP3     H218987   3.587   1.476   9.686
 2654TP3      O18988   3.271   0.976   0.161
 2654TP3     H118989   3.177   0.957   0.145
 2654TP3     H218990   3.313   0.902   0.113
 2655TP3      O18991   2.521   1.410  10.089
 2655TP3     H118992   2.570   1.491  10.068
 2655TP3     H218993   2.434   1.431  10.053
 2656TP3      O18994   2.093   0.894   9.537
 2656TP3     H118995   2.153   0.954   9.584
 2656TP3     H218996   2.006   0.916   9.575
 2657TP3      O18997   2.658   1.177  10.032
 2657TP3     H118998   2.623   1.267  10.046
 2657TP3     H218999   2.594   1.122  10.083
 2658TP3      O19000   2.705   1.595   0.370
 2658TP3     H119001   2.757   1.670   0.337
 2658TP3     H219002   2.769   1.556   0.432
 2659TP3      O19003   2.531   1.671   9.989
 2659TP3     H119004   2.435   1.686  10.007
 2659TP3     H219005   2.568   1.755  10.023
 2660TP3      O19006   3.051   1.188   0.324
 2660TP3     H119007   3.027   1.172   0.417
 2660TP3     H219008   3.118   1.120   0.306
 2661TP3      O19009   3.292   1.301   9.559
 2661TP3     H119010   3.315   1.251   9.641
 2661TP3     H219011   3.198   1.281   9.556
 2662TP3      O19012   3.344   1.650   0.572
 2662TP3     H119013   3.271   1.602   0.529
 2662TP3     H219014   3.360   1.719   0.504
 2663TP3      O19015   3.735   1.744   9.577
 2663TP3     H119016   3.804   1.807   9.552
 2663TP3     H219017   3.664   1.803   9.609
 2664TP3      O19018   2.150   0.369   0.508
 2664TP3     H119019   2.066   0.415   0.530
 2664TP3     H219020   2.136   0.289   0.563
 2665TP3      O19021   3.368   1.161   9.780
 2665TP3     H119022   3.345   1.077   9.826
 2665TP3     H219023   3.463   1.167   9.797
 2666TP3      O19024   2.108   1.550   0.354
 2666TP3     H119025   2.147   1.461   0.355
 2666TP3     H219026   2.134   1.583   0.440
 2667TP3      O19027   2.578   1.364   9.647
 2667TP3     H119028   2.619   1.308   9.714
 2667TP3     H219029   2.592   1.455   9.682
 2668TP3      O19030   2.237   1.086   9.690
 2668TP3     H119031   2.168   1.127   9.746
 2668TP3     H219032   2.287   1.164   9.661
 2669TP3      O19033   3.025   0.349   0.409
 2669TP3     H119034   3.090   0.356   0.479
 2669TP3     H219035   2.978   0.266   0.435
 2670TP3      O19036   3.101   0.301   9.842
 2670TP3     H119037   3.116   0.352   9.760
 2670TP3     H219038   3.157   0.350   9.905
 2671TP3      O19039   2.863   1.527   9.725
 2671TP3     H119040   2.777   1.574   9.720
 2671TP3     H219041   2.916   1.568   9.653
 2672TP3      O19042   2.819   0.481   9.917
 2672TP3     H119043   2.891   0.546   9.922
 2672TP3     H219044   2.787   0.474  10.009
 2673TP3      O19045   2.877   0.590   0.522
 2673TP3     H119046   2.883   0.642   0.604
 2673TP3     H219047   2.942   0.519   0.532
 2674TP3      O19048   2.898   0.188  10.009
 2674TP3     H119049   2.869   0.255  10.072
 2674TP3     H219050   2.968   0.238   9.961
 2675TP3      O19051   2.605   1.630   9.722
 2675TP3     H119052   2.623   1.713   9.673
 2675TP3     H219053   2.574   1.663   9.810
 2676TP3      O19054   2.466   0.300   9.683
 2676TP3     H119055   2.462   0.393   9.714
 2676TP3     H219056   2.556   0.279   9.716
 2677TP3      O19057   3.489   0.376   0.602
 2677TP3     H119058   3.396   0.406   0.590
 2677TP3     H219059   3.516   0.364   0.510
 2678TP3      O19060   3.354   0.753   0.002
 2678TP3     H119061   3.272   0.705  -0.021
 2678TP3     H219062   3.406   0.686   0.053
 2679TP3      O19063   2.292   1.347   9.577
 2679TP3     H119064   2.363   1.400   9.616
 2679TP3     H219065   2.344   1.295   9.513
 2680TP3      O19066   2.130   0.618   9.502
 2680TP3     H119067   2.132   0.716   9.511
 2680TP3     H219068   2.046   0.602   9.459
 2681TP3      O19069   3.459   1.683   0.169
 2681TP3     H119070   3.453   1.750   0.098
 2681TP3     H219071   3.556   1.685   0.187
 2682TP3      O19072   2.238   0.124   0.024
 2682TP3     H119073   2.194   0.120  -0.063
 2682TP3     H219074   2.182   0.057   0.070
 2683TP3      O19075   2.104   1.486   9.983
 2683TP3     H119076   2.014   1.522   9.977
 2683TP3     H219077   2.141   1.526   9.903
 2684TP3      O19078   2.016   1.748   0.794
 2684TP3     H119079   2.081   1.733   0.866
 2684TP3     H219080   1.983   1.658   0.777
 2685TP3      O19081   2.494   1.641   0.953
 2685TP3     H119082   2.569   1.591   0.988
 2685TP3     H219083   2.490   1.610   0.860
 2686TP3      O19084   2.953   1.588   9.484
 2686TP3     H119085   2.869   1.546   9.460
 2686TP3     H219086   3.007   1.557   9.410
 2687TP3      O19087   3.135   1.482   0.835
 2687TP3     H119088   3.105   1.393   0.863
 2687TP3     H219089   3.215   1.493   0.890
 2688TP3      O19090   3.326   1.578   9.441
 2688TP3     H119091   3.355   1.498   9.490
 2688TP3     H219092   3.409   1.589   9.389
 2689TP3      O19093   2.006   1.122   0.898
 2689TP3     H119094   2.026   1.032   0.867
 2689TP3     H219095   1.939   1.150   0.833
 2690TP3      O19096   2.455   1.169   9.434
 2690TP3     H119097   2.462   1.085   9.480
 2690TP3     H219098   2.503   1.148   9.351
 2691TP3      O19099   2.684   1.126   0.832
 2691TP3     H119100   2.652   1.161   0.746
 2691TP3     H219101   2.687   1.028   0.818
 2692TP3      O19102   3.251   1.108   0.575
 2692TP3     H119103   3.333   1.162   0.573
 2692TP3     H219104   3.186   1.179   0.575
 2693TP3      O19105   2.113   0.852   0.838
 2693TP3     H119106   2.152   0.764   0.827
 2693TP3     H219107   2.087   0.850   0.931
 2694TP3      O19108   2.576   0.967   9.662
 2694TP3     H119109   2.517   0.912   9.718
 2694TP3     H219110   2.607   0.900   9.597
 2695TP3      O19111   2.497   0.741   0.566
 2695TP3     H119112   2.434   0.811   0.590
 2695TP3     H219113   2.540   0.780   0.488
 2696TP3      O19114   2.681   0.791   9.474
 2696TP3     H119115   2.677   0.766   9.380
 2696TP3     H219116   2.778   0.793   9.492
 2697TP3      O19117   3.007   1.003   0.906
 2697TP3     H119118   3.100   0.993   0.882
 2697TP3     H219119   2.988   0.923   0.959
 2698TP3      O19120   3.587   1.039   9.423
 2698TP3     H119121   3.583   0.986   9.341
 2698TP3     H219122   3.619   1.125   9.395
 2699TP3      O19123   2.546   0.482   0.668
 2699TP3     H119124   2.549   0.413   0.600
 2699TP3     H219125   2.528   0.563   0.616
 2700TP3      O19126   2.580   0.324   0.430
 2700TP3     H119127   2.629   0.368   0.357
 2700TP3     H219128   2.491   0.313   0.392
 2701TP3      O19129   2.731   0.872   0.453
 2701TP3     H119130   2.807   0.855   0.397
 2701TP3     H219131   2.692   0.953   0.415
 2702TP3      O19132   3.169   0.639   0.941
 2702TP3     H119133   3.197   0.545   0.938
 2702TP3     H219134   3.254   0.686   0.952
 2703TP3      O19135   3.308   0.924   0.773
 2703TP3     H119136   3.281   0.992   0.708
 2703TP3     H219137   3.404   0.918   0.754
 2704TP3      O19138   2.386   0.606   0.865
 2704TP3     H119139   2.309   0.546   0.852
 2704TP3     H219140   2.450   0.570   0.801
 2705TP3      O19141   2.647   0.073   0.479
 2705TP3     H119142   2.634   0.168   0.457
 2705TP3     H219143   2.588   0.029   0.417
 2706TP3      O19144   2.788   0.493   0.834
 2706TP3     H119145   2.751   0.468   0.921
 2706TP3     H219146   2.711   0.474   0.777
 2707TP3      O19147   3.059   0.407   0.747
 2707TP3     H119148   2.962   0.414   0.755
 2707TP3     H219149   3.082   0.347   0.820
 2708TP3      O19150   3.220   0.283   0.931
 2708TP3     H119151   3.215   0.185   0.928
 2708TP3     H219152   3.192   0.303   1.022
 2709TP3      O19153   2.203   0.392   0.852
 2709TP3     H119154   2.211   0.319   0.787
 2709TP3     H219155   2.180   0.348   0.936
 2710TP3      O19156   2.648   5.516   0.730
 2710TP3     H119157   2.732   5.468   0.745
 2710TP3     H219158   2.659   5.545   0.636
 2711TP3      O19159   2.720   0.169   0.949
 2711TP3     H119160   2.704   0.112   0.872
 2711TP3     H219161   2.651   0.237   0.939
 2712TP3      O19162   2.658   1.859   9.582
 2712TP3     H119163   2.756   1.861   9.589
 2712TP3     H219164   2.644   1.916   9.505
 2713TP3      O19165   2.022   1.292   9.536
 2713TP3     H119166   2.114   1.323   9.549
 2713TP3     H219167   2.025   1.265   9.444
 2714TP3      O19168   1.894   1.846  10.026
 2714TP3     H119169   1.820   1.797   9.982
 2714TP3     H219170   1.921   1.783  10.095
 2715TP3      O19171   1.976   1.663  10.217
 2715TP3     H119172   1.939   1.577  10.240
 2715TP3     H219173   2.001   1.698  10.305
 2716TP3      O19174   3.732   1.745   0.189
 2716TP3     H119175   3.738   1.756   0.285
 2716TP3     H219176   3.802   1.804   0.159
 2717TP3      O19177   3.687   1.703   0.484
 2717TP3     H119178   3.641   1.626   0.444
 2717TP3     H219179   3.729   1.658   0.560
 2718TP3      O19180   3.532   1.273   0.956
 2718TP3     H119181   3.440   1.275   0.989
 2718TP3     H219182   3.568   1.356   0.992
 2719TP3      O19183   3.667   1.110   9.807
 2719TP3     H119184   3.752   1.150   9.832
 2719TP3     H219185   3.660   1.043   9.878
 2720TP3      O19186   3.697   0.918  10.001
 2720TP3     H119187   3.620   0.868  10.037
 2720TP3     H219188   3.756   0.926  10.078
 2721TP3      O19189   3.675   1.183   0.183
 2721TP3     H119190   3.753   1.142   0.143
 2721TP3     H219191   3.692   1.279   0.167
 2722TP3      O19192   3.532   1.475   0.409
 2722TP3     H119193   3.463   1.511   0.467
 2722TP3     H219194   3.478   1.439   0.335
 2723TP3      O19195   3.727   0.896   9.637
 2723TP3     H119196   3.662   0.927   9.572
 2723TP3     H219197   3.719   0.966   9.705
 2724TP3      O19198   3.514   0.626   9.499
 2724TP3     H119199   3.571   0.683   9.445
 2724TP3     H219200   3.543   0.541   9.463
 2725TP3      O19201   3.479   0.765  10.062
 2725TP3     H119202   3.467   0.669  10.050
 2725TP3     H219203   3.454   0.778  10.155
 2726TP3      O19204   1.983   0.973   0.151
 2726TP3     H119205   1.996   0.961   0.055
 2726TP3     H219206   2.073   0.951   0.183
 2727TP3      O19207   3.572   0.960   0.714
 2727TP3     H119208   3.632   0.883   0.724
 2727TP3     H219209   3.633   1.036   0.713
 2728TP3      O19210   3.720   0.743   0.777
 2728TP3     H119211   3.630   0.707   0.763
 2728TP3     H219212   3.775   0.663   0.772
 2729TP3      O19213   3.447   0.532   9.906
 2729TP3     H119214   3.471   0.436   9.918
 2729TP3     H219215   3.527   0.564   9.863
 2730TP3      O19216   3.514   0.580   0.134
 2730TP3     H119217   3.611   0.602   0.133
 2730TP3     H219218   3.497   0.589   0.229
 2731TP3      O19219   3.517   0.650   0.406
 2731TP3     H119220   3.429   0.678   0.438
 2731TP3     H219221   3.562   0.735   0.385
 2732TP3      O19222   1.986   0.477   0.709
 2732TP3     H119223   2.054   0.467   0.779
 2732TP3     H219224   1.907   0.456   0.765
 2733TP3      O19225   3.733   0.085   0.937
 2733TP3     H119226   3.774   0.009   0.892
 2733TP3     H219227   3.751   0.154   0.870
 2734TP3      O19228   3.514   0.271   9.911
 2734TP3     H119229   3.540   0.218   9.990
 2734TP3     H219230   3.452   0.207   9.867
 2735TP3      O19231   2.058   0.332   0.058
 2735TP3     H119232   2.114   0.254   0.073
 2735TP3     H219233   2.121   0.402   0.082
 2736TP3      O19234   1.891   0.637   0.148
 2736TP3     H119235   1.951   0.610   0.076
 2736TP3     H219236   1.944   0.710   0.185
 2737TP3      O19237   3.697   0.279   0.766
 2737TP3     H119238   3.601   0.294   0.775
 2737TP3     H219239   3.693   0.211   0.697
 2738TP3      O19240   3.706   0.263   9.570
 2738TP3     H119241   3.734   0.193   9.509
 2738TP3     H219242   3.776   0.329   9.562
 2739TP3      O19243   1.921   0.249   9.864
 2739TP3     H119244   1.830   0.282   9.867
 2739TP3     H219245   1.966   0.311   9.804
 2740TP3      O19246   3.401   1.752  10.073
 2740TP3     H119247   3.471   1.724  10.010
 2740TP3     H219248   3.451   1.803  10.139
 2741TP3      O19249   1.939   0.144   0.391
 2741TP3     H119250   1.877   0.105   0.455
 2741TP3     H219251   1.879   0.194   0.333
 2742TP3      O19252   2.152   1.438   0.803
 2742TP3     H119253   2.069   1.464   0.760
 2742TP3     H219254   2.125   1.430   0.895
 2743TP3      O19255   2.438   1.545   0.434
 2743TP3     H119256   2.414   1.636   0.410
 2743TP3     H219257   2.531   1.548   0.406
 2744TP3      O19258   2.867   1.687   0.721
 2744TP3     H119259   2.879   1.650   0.811
 2744TP3     H219260   2.959   1.717   0.700
 2745TP3      O19261   3.098   1.813   0.655
 2745TP3     H119262   3.174   1.759   0.630
 2745TP3     H219263   3.133   1.859   0.734
 2746TP3      O19264   3.570   0.078   0.580
 2746TP3     H119265   3.504   0.125   0.528
 2746TP3     H219266   3.605   0.012   0.516
 2747TP3      O19267   2.180   1.866   0.428
 2747TP3     H119268   2.107   1.919   0.392
 2747TP3     H219269   2.154   1.852   0.520
 2748TP3      O19270   2.426   1.823   0.336
 2748TP3     H119271   2.338   1.843   0.375
 2748TP3     H219272   2.424   1.885   0.261
 2749TP3      O19273   2.897   1.813   0.256
 2749TP3     H119274   2.852   1.869   0.192
 2749TP3     H219275   2.911   1.876   0.330
 2750TP3      O19276   3.121   1.687   0.368
 2750TP3     H119277   3.042   1.722   0.321
 2750TP3     H219278   3.178   1.764   0.358
 2751TP3      O19279   3.382   1.847   0.378
 2751TP3     H119280   3.385   1.943   0.356
 2751TP3     H219281   3.406   1.808   0.291
 2752TP3      O19282   2.131   1.731   0.126
 2752TP3     H119283   2.119   1.682   0.210
 2752TP3     H219284   2.211   1.690   0.088
 2753TP3      O19285   2.337   1.602  -0.008
 2753TP3     H119286   2.323   1.509   0.018
 2753TP3     H219287   2.423   1.621   0.034
 2754TP3      O19288   2.597   1.649   0.080
 2754TP3     H119289   2.610   1.556   0.056
 2754TP3     H219290   2.602   1.646   0.177
 2755TP3      O19291   2.942   0.224  10.307
 2755TP3     H119292   2.874   0.161  10.340
 2755TP3     H219293   2.995   0.161  10.255
 2756TP3      O19294   3.447   0.029  10.291
 2756TP3     H119295   3.510   0.088  10.244
 2756TP3     H219296   3.360   0.069  10.268
 2757TP3      O19297   3.630   0.155  10.141
 2757TP3     H119298   3.688   0.089  10.099
 2757TP3     H219299   3.686   0.235  10.149
 2758TP3      O19300   2.139   0.114  10.092
 2758TP3     H119301   2.072   0.072  10.036
 2758TP3     H219302   2.204   0.041  10.102
 2759TP3      O19303   2.075   0.100   9.662
 2759TP3     H119304   2.104   0.173   9.604
 2759TP3     H219305   2.003   0.137   9.718
 2760TP3      O19306   2.630   0.105  10.095
 2760TP3     H119307   2.724   0.117  10.075
 2760TP3     H219308   2.637   0.054  10.177
 2761TP3      O19309   3.218   0.097  10.203
 2761TP3     H119310   3.179   0.104  10.115
 2761TP3     H219311   3.171   0.020  10.242
 2762TP3      O19312   3.337   0.113   9.804
 2762TP3     H119313   3.251   0.147   9.777
 2762TP3     H219314   3.307   0.021   9.820
 2763TP3      O19315   2.046   1.648   9.773
 2763TP3     H119316   1.979   1.643   9.703
 2763TP3     H219317   2.051   1.745   9.780
 2764TP3      O19318   2.236   0.265   9.515
 2764TP3     H119319   2.276   0.189   9.469
 2764TP3     H219320   2.302   0.280   9.585
 2765TP3      O19321   2.725   0.270   9.770
 2765TP3     H119322   2.778   0.220   9.834
 2765TP3     H219323   2.743   0.361   9.804
 2766TP3      O19324   2.930   1.822   9.593
 2766TP3     H119325   3.028   1.810   9.592
 2766TP3     H219326   2.913   1.736   9.547
 2767TP3      O19327   3.594   1.729   9.879
 2767TP3     H119328   3.578   1.650   9.823
 2767TP3     H219329   3.585   1.801   9.813
 2768TP3      O19330   2.190   0.144   0.694
 2768TP3     H119331   2.125   0.079   0.729
 2768TP3     H219332   2.266   0.127   0.754
 2769TP3      O19333   2.378   0.087   0.876
 2769TP3     H119334   2.466   0.048   0.863
 2769TP3     H219335   2.330   0.007   0.909
 2770TP3      O19336   2.259   1.779   9.473
 2770TP3     H119337   2.201   1.779   9.550
 2770TP3     H219338   2.299   1.692   9.477
 2771TP3      O19339   3.218   5.546   0.882
 2771TP3     H119340   3.192   5.496   0.962
 2771TP3     H219341   3.308   5.516   0.867
 2772TP3      O19342   3.526   1.606   0.762
 2772TP3     H119343   3.447   1.594   0.705
 2772TP3     H219344   3.514   1.700   0.786
 2773TP3      O19345   4.970   0.994  10.078
 2773TP3     H119346   4.967   1.092  10.079
 2773TP3     H219347   4.897   0.972  10.019
 2774TP3      O19348   4.856   0.912   0.111
 2774TP3     H119349   4.860   0.850   0.186
 2774TP3     H219350   4.814   0.860   0.040
 2775TP3      O19351   4.091   0.887   0.267
 2775TP3     H119352   4.098   0.816   0.334
 2775TP3     H219353   4.166   0.942   0.292
 2776TP3      O19354   5.218   1.219  10.259
 2776TP3     H119355   5.189   1.141  10.306
 2776TP3     H219356   5.238   1.279  10.332
 2777TP3      O19357   4.182   1.333   0.109
 2777TP3     H119358   4.153   1.243   0.085
 2777TP3     H219359   4.278   1.317   0.115
 2778TP3      O19360   3.846   0.683   9.981
 2778TP3     H119361   3.799   0.768   9.977
 2778TP3     H219362   3.790   0.628   9.924
 2779TP3      O19363   3.922   0.909  10.204
 2779TP3     H119364   3.951   0.824  10.243
 2779TP3     H219365   3.983   0.922  10.131
 2780TP3      O19366   4.936   1.731  10.283
 2780TP3     H119367   5.000   1.663  10.250
 2780TP3     H219368   4.909   1.690  10.365
 2781TP3      O19369   4.693   1.154   0.168
 2781TP3     H119370   4.725   1.095   0.098
 2781TP3     H219371   4.778   1.172   0.213
 2782TP3      O19372   5.003   0.600   0.198
 2782TP3     H119373   5.034   0.507   0.201
 2782TP3     H219374   5.002   0.615   0.102
 2783TP3      O19375   4.319   0.416  10.229
 2783TP3     H119376   4.335   0.496  10.173
 2783TP3     H219377   4.288   0.350  10.163
 2784TP3      O19378   5.096   0.417  10.068
 2784TP3     H119379   5.163   0.383  10.132
 2784TP3     H219380   5.150   0.481  10.020
 2785TP3      O19381   3.981   0.660  10.303
 2785TP3     H119382   4.046   0.607  10.351
 2785TP3     H219383   3.995   0.625  10.213
 2786TP3      O19384   4.496   0.810  10.241
 2786TP3     H119385   4.567   0.752  10.273
 2786TP3     H219386   4.450   0.748  10.182
 2787TP3      O19387   4.218   0.311   0.319
 2787TP3     H119388   4.185   0.366   0.244
 2787TP3     H219389   4.146   0.323   0.386
 2788TP3      O19390   4.935   1.248   9.984
 2788TP3     H119391   4.915   1.228   9.891
 2788TP3     H219392   4.908   1.342   9.992
 2789TP3      O19393   4.462   1.067   0.336
 2789TP3     H119394   4.394   1.132   0.365
 2789TP3     H219395   4.533   1.126   0.306
 2790TP3      O19396   5.274   0.367  10.267
 2790TP3     H119397   5.249   0.287  10.313
 2790TP3     H219398   5.342   0.404  10.325
 2791TP3      O19399   4.171   0.494   0.119
 2791TP3     H119400   4.236   0.559   0.154
 2791TP3     H219401   4.224   0.453   0.045
 2792TP3      O19402   4.311   1.271   0.421
 2792TP3     H119403   4.303   1.363   0.389
 2792TP3     H219404   4.223   1.260   0.465
 2793TP3      O19405   3.911   1.224   9.816
 2793TP3     H119406   3.896   1.262   9.726
 2793TP3     H219407   3.923   1.305   9.869
 2794TP3      O19408   5.269   1.394   0.175
 2794TP3     H119409   5.172   1.409   0.189
 2794TP3     H219410   5.301   1.484   0.156
 2795TP3      O19411   5.320   0.222   0.318
 2795TP3     H119412   5.238   0.273   0.307
 2795TP3     H219413   5.376   0.270   0.257
 2796TP3      O19414   4.615   0.068   0.056
 2796TP3     H119415   4.613  -0.029   0.061
 2796TP3     H219416   4.524   0.087   0.089
 2797TP3      O19417   5.103   1.575  10.151
 2797TP3     H119418   5.143   1.502  10.100
 2797TP3     H219419   5.156   1.651  10.118
 2798TP3      O19420   5.221   1.363   9.991
 2798TP3     H119421   5.187   1.289   9.938
 2798TP3     H219422   5.230   1.320  10.079
 2799TP3      O19423   5.381   1.229   0.549
 2799TP3     H119424   5.405   1.163   0.482
 2799TP3     H219425   5.406   1.311   0.502
 2800TP3      O19426   4.833   0.916   9.823
 2800TP3     H119427   4.768   0.979   9.784
 2800TP3     H219428   4.908   0.926   9.763
 2801TP3      O19429   4.841   0.775   9.545
 2801TP3     H119430   4.917   0.780   9.606
 2801TP3     H219431   4.875   0.712   9.481
 2802TP3      O19432   5.173   0.928   9.918
 2802TP3     H119433   5.106   0.959   9.983
 2802TP3     H219434   5.232   0.876   9.975
 2803TP3      O19435   5.174   0.757   0.518
 2803TP3     H119436   5.165   0.838   0.571
 2803TP3     H219437   5.110   0.780   0.447
 2804TP3      O19438   4.343   1.003  10.113
 2804TP3     H119439   4.312   0.963  10.028
 2804TP3     H219440   4.404   0.934  10.148
 2805TP3      O19441   4.474   1.337   0.065
 2805TP3     H119442   4.477   1.290  -0.020
 2805TP3     H219443   4.554   1.303   0.110
 2806TP3      O19444   4.373   0.875   0.168
 2806TP3     H119445   4.424   0.883   0.084
 2806TP3     H219446   4.415   0.944   0.224
 2807TP3      O19447   5.015   1.437   0.237
 2807TP3     H119448   4.992   1.500   0.306
 2807TP3     H219449   4.993   1.351   0.279
 2808TP3      O19450   4.471   1.321   0.635
 2808TP3     H119451   4.422   1.390   0.685
 2808TP3     H219452   4.407   1.299   0.563
 2809TP3      O19453   5.079   0.856   9.685
 2809TP3     H119454   5.123   0.880   9.770
 2809TP3     H219455   5.115   0.919   9.620
 2810TP3      O19456   4.167   0.935   0.543
 2810TP3     H119457   4.175   1.001   0.614
 2810TP3     H219458   4.071   0.935   0.532
 2811TP3      O19459   4.839   1.528  10.038
 2811TP3     H119460   4.881   1.562  10.118
 2811TP3     H219461   4.788   1.604  10.005
 2812TP3      O19462   4.299   1.520   0.708
 2812TP3     H119463   4.287   1.516   0.611
 2812TP3     H219464   4.207   1.505   0.738
 2813TP3      O19465   5.437   0.039   9.657
 2813TP3     H119466   5.346   0.039   9.693
 2813TP3     H219467   5.448   0.128   9.626
 2814TP3      O19468   4.235   0.903   9.875
 2814TP3     H119469   4.205   0.980   9.823
 2814TP3     H219470   4.174   0.834   9.848
 2815TP3      O19471   3.849   1.147   0.456
 2815TP3     H119472   3.805   1.140   0.369
 2815TP3     H219473   3.861   1.052   0.475
 2816TP3      O19474   3.822   1.421   0.129
 2816TP3     H119475   3.918   1.409   0.127
 2816TP3     H219476   3.816   1.504   0.177
 2817TP3      O19477   4.742   1.444   0.584
 2817TP3     H119478   4.747   1.528   0.635
 2817TP3     H219479   4.655   1.406   0.608
 2818TP3      O19480   4.790   1.819   9.871
 2818TP3     H119481   4.781   1.820   9.775
 2818TP3     H219482   4.793   1.914   9.895
 2819TP3      O19483   4.153   1.709  10.066
 2819TP3     H119484   4.169   1.665  10.153
 2819TP3     H219485   4.069   1.666  10.040
 2820TP3      O19486   5.081   1.744   9.575
 2820TP3     H119487   5.132   1.671   9.532
 2820TP3     H219488   5.095   1.722   9.669
 2821TP3      O19489   5.060   1.735   9.856
 2821TP3     H119490   4.964   1.742   9.872
 2821TP3     H219491   5.084   1.659   9.911
 2822TP3      O19492   5.346   0.648   0.739
 2822TP3     H119493   5.300   0.677   0.659
 2822TP3     H219494   5.373   0.558   0.715
 2823TP3      O19495   4.080   1.278   0.545
 2823TP3     H119496   4.099   1.245   0.636
 2823TP3     H219497   3.992   1.241   0.524
 2824TP3      O19498   4.360   0.132   0.154
 2824TP3     H119499   4.278   0.118   0.100
 2824TP3     H219500   4.331   0.211   0.202
 2825TP3      O19501   4.808   0.106   0.477
 2825TP3     H119502   4.852   0.060   0.549
 2825TP3     H219503   4.714   0.082   0.489
 2826TP3      O19504   5.137   0.480   0.553
 2826TP3     H119505   5.090   0.459   0.636
 2826TP3     H219506   5.123   0.576   0.543
 2827TP3      O19507   5.222   0.971   9.481
 2827TP3     H119508   5.220   0.959   9.386
 2827TP3     H219509   5.309   1.013   9.489
 2828TP3      O19510   4.790   0.356   9.552
 2828TP3     H119511   4.750   0.338   9.638
 2828TP3     H219512   4.783   0.270   9.506
 2829TP3      O19513   4.354   0.625   0.270
 2829TP3     H119514   4.279   0.629   0.333
 2829TP3     H219515   4.351   0.715   0.229
 2830TP3      O19516   4.353   0.632  10.067
 2830TP3     H119517   4.258   0.610  10.058
 2830TP3     H219518   4.387   0.606   9.979
 2831TP3      O19519   4.907   0.688   9.939
 2831TP3     H119520   4.868   0.772   9.906
 2831TP3     H219521   4.974   0.669   9.870
 2832TP3      O19522   4.807   0.709   0.770
 2832TP3     H119523   4.759   0.628   0.800
 2832TP3     H219524   4.892   0.700   0.817
 2833TP3      O19525   5.006   0.639  10.235
 2833TP3     H119526   4.978   0.696  10.161
 2833TP3     H219527   5.017   0.555  10.188
 2834TP3      O19528   4.116   0.648   0.427
 2834TP3     H119529   4.135   0.687   0.515
 2834TP3     H219530   4.077   0.562   0.452
 2835TP3      O19531   4.463   0.432   9.479
 2835TP3     H119532   4.410   0.359   9.519
 2835TP3     H219533   4.410   0.466   9.406
 2836TP3      O19534   3.789   0.371  10.149
 2836TP3     H119535   3.851   0.361  10.223
 2836TP3     H219536   3.833   0.323  10.077
 2837TP3      O19537   3.913   0.434   9.690
 2837TP3     H119538   3.967   0.486   9.626
 2837TP3     H219539   3.846   0.502   9.715
 2838TP3      O19540   4.923   0.793   0.361
 2838TP3     H119541   4.966   0.723   0.307
 2838TP3     H219542   4.877   0.740   0.429
 2839TP3      O19543   4.614   0.413  10.172
 2839TP3     H119544   4.521   0.387  10.188
 2839TP3     H219545   4.655   0.369  10.248
 2840TP3      O19546   4.085   0.545  10.056
 2840TP3     H119547   4.000   0.561  10.010
 2840TP3     H219548   4.117   0.463  10.013
 2841TP3      O19549   4.450   0.554   9.813
 2841TP3     H119550   4.545   0.564   9.831
 2841TP3     H219551   4.428   0.620   9.745
 2842TP3      O19552   5.046   0.304   0.177
 2842TP3     H119553   4.977   0.322   0.245
 2842TP3     H219554   4.995   0.291   0.095
 2843TP3      O19555   4.321   0.677   9.579
 2843TP3     H119556   4.266   0.636   9.510
 2843TP3     H219557   4.405   0.691   9.533
 2844TP3      O19558   5.366   1.878   0.825
 2844TP3     H119559   5.391   1.907   0.734
 2844TP3     H219560   5.445   1.907   0.872
 2845TP3      O19561   4.133   1.127   0.768
 2845TP3     H119562   4.207   1.151   0.826
 2845TP3     H219563   4.058   1.127   0.831
 2846TP3      O19564   4.735   0.667   0.040
 2846TP3     H119565   4.800   0.614  -0.008
 2846TP3     H219566   4.718   0.613   0.118
 2847TP3      O19567   4.236   0.280  10.008
 2847TP3     H119568   4.198   0.191  10.008
 2847TP3     H219569   4.310   0.270   9.947
 2848TP3      O19570   4.599   0.496   0.281
 2848TP3     H119571   4.518   0.551   0.288
 2848TP3     H219572   4.657   0.534   0.349
 2849TP3      O19573   4.657   1.117   9.774
 2849TP3     H119574   4.575   1.073   9.742
 2849TP3     H219575   4.632   1.138   9.866
 2850TP3      O19576   5.380   1.050   0.334
 2850TP3     H119577   5.433   1.082   0.260
 2850TP3     H219578   5.293   1.040   0.290
 2851TP3      O19579   5.053   0.405   9.583
 2851TP3     H119580   4.956   0.404   9.568
 2851TP3     H219581   5.068   0.492   9.622
 2852TP3      O19582   4.806   1.155   0.578
 2852TP3     H119583   4.772   1.106   0.653
 2852TP3     H219584   4.774   1.245   0.593
 2853TP3      O19585   5.111   0.597   9.751
 2853TP3     H119586   5.196   0.585   9.799
 2853TP3     H219587   5.125   0.682   9.705
 2854TP3      O19588   4.170   1.065   0.033
 2854TP3     H119589   4.233   1.053  -0.041
 2854TP3     H219590   4.176   0.980   0.080
 2855TP3      O19591   4.868   1.266   9.685
 2855TP3     H119592   4.826   1.352   9.708
 2855TP3     H219593   4.794   1.203   9.697
 2856TP3      O19594   3.867   0.900   0.558
 2856TP3     H119595   3.880   0.855   0.643
 2856TP3     H219596   3.805   0.842   0.510
 2857TP3      O19597   4.570   0.859   0.772
 2857TP3     H119598   4.534   0.820   0.690
 2857TP3     H219599   4.660   0.822   0.772
 2858TP3      O19600   5.036   1.392   0.576
 2858TP3     H119601   4.943   1.411   0.554
 2858TP3     H219602   5.038   1.424   0.668
 2859TP3      O19603   5.438   1.483   9.754
 2859TP3     H119604   5.394   1.406   9.792
 2859TP3     H219605   5.459   1.460   9.663
 2860TP3      O19606   5.152   0.970   0.167
 2860TP3     H119607   5.058   0.956   0.146
 2860TP3     H219608   5.194   0.901   0.113
 2861TP3      O19609   4.407   1.410  10.089
 2861TP3     H119610   4.455   1.492  10.068
 2861TP3     H219611   4.320   1.431  10.053
 2862TP3      O19612   3.978   0.894   9.537
 2862TP3     H119613   4.039   0.954   9.584
 2862TP3     H219614   3.891   0.916   9.575
 2863TP3      O19615   4.544   1.176  10.032
 2863TP3     H119616   4.509   1.267  10.046
 2863TP3     H219617   4.480   1.122  10.083
 2864TP3      O19618   4.591   1.595   0.370
 2864TP3     H119619   4.643   1.670   0.337
 2864TP3     H219620   4.655   1.556   0.432
 2865TP3      O19621   4.416   1.671   9.989
 2865TP3     H119622   4.321   1.686  10.007
 2865TP3     H219623   4.453   1.755  10.023
 2866TP3      O19624   4.935   1.187   0.324
 2866TP3     H119625   4.912   1.173   0.418
 2866TP3     H219626   4.999   1.116   0.307
 2867TP3      O19627   5.180   1.299   9.556
 2867TP3     H119628   5.201   1.254   9.641
 2867TP3     H219629   5.084   1.283   9.554
 2868TP3      O19630   5.226   1.645   0.570
 2868TP3     H119631   5.151   1.601   0.526
 2868TP3     H219632   5.246   1.717   0.507
 2869TP3      O19633   4.035   0.374   0.513
 2869TP3     H119634   3.945   0.411   0.514
 2869TP3     H219635   4.021   0.289   0.559
 2870TP3      O19636   5.257   1.157   9.778
 2870TP3     H119637   5.228   1.077   9.826
 2870TP3     H219638   5.351   1.162   9.804
 2871TP3      O19639   3.993   1.550   0.354
 2871TP3     H119640   4.032   1.461   0.355
 2871TP3     H219641   4.019   1.583   0.440
 2872TP3      O19642   4.463   1.364   9.647
 2872TP3     H119643   4.504   1.308   9.715
 2872TP3     H219644   4.477   1.455   9.681
 2873TP3      O19645   4.122   1.086   9.690
 2873TP3     H119646   4.053   1.127   9.746
 2873TP3     H219647   4.173   1.164   9.661
 2874TP3      O19648   4.906   0.349   0.412
 2874TP3     H119649   4.975   0.357   0.480
 2874TP3     H219650   4.863   0.265   0.437
 2875TP3      O19651   4.991   0.302   9.843
 2875TP3     H119652   5.003   0.354   9.761
 2875TP3     H219653   5.047   0.352   9.905
 2876TP3      O19654   4.748   1.528   9.725
 2876TP3     H119655   4.663   1.574   9.720
 2876TP3     H219656   4.801   1.568   9.654
 2877TP3      O19657   4.705   0.481   9.917
 2877TP3     H119658   4.777   0.546   9.921
 2877TP3     H219659   4.672   0.474  10.009
 2878TP3      O19660   4.761   0.589   0.522
 2878TP3     H119661   4.768   0.642   0.604
 2878TP3     H219662   4.828   0.520   0.531
 2879TP3      O19663   4.778   0.188  10.007
 2879TP3     H119664   4.751   0.255  10.073
 2879TP3     H219665   4.851   0.237   9.963
 2880TP3      O19666   4.487   1.629   9.721
 2880TP3     H119667   4.507   1.712   9.673
 2880TP3     H219668   4.459   1.662   9.810
 2881TP3      O19669   4.352   0.300   9.683
 2881TP3     H119670   4.348   0.393   9.714
 2881TP3     H219671   4.442   0.279   9.716
 2882TP3      O19672   5.375   0.379   0.601
 2882TP3     H119673   5.282   0.406   0.586
 2882TP3     H219674   5.411   0.380   0.512
 2883TP3      O19675   5.236   0.757   0.002
 2883TP3     H119676   5.155   0.711  -0.026
 2883TP3     H219677   5.277   0.686   0.055
 2884TP3      O19678   4.178   1.347   9.577
 2884TP3     H119679   4.249   1.400   9.616
 2884TP3     H219680   4.230   1.294   9.513
 2885TP3      O19681   4.016   0.618   9.502
 2885TP3     H119682   4.018   0.716   9.511
 2885TP3     H219683   3.932   0.602   9.459
 2886TP3      O19684   5.349   1.679   0.172
 2886TP3     H119685   5.333   1.745   0.101
 2886TP3     H219686   5.443   1.686   0.187
 2887TP3      O19687   4.123   0.125   0.026
 2887TP3     H119688   4.080   0.121  -0.063
 2887TP3     H219689   4.069   0.056   0.070
 2888TP3      O19690   3.989   1.486   9.983
 2888TP3     H119691   3.900   1.522   9.977
 2888TP3     H219692   4.027   1.526   9.903
 2889TP3      O19693   3.902   1.748   0.794
 2889TP3     H119694   3.966   1.733   0.866
 2889TP3     H219695   3.869   1.658   0.778
 2890TP3      O19696   4.379   1.641   0.953
 2890TP3     H119697   4.455   1.591   0.988
 2890TP3     H219698   4.376   1.610   0.860
 2891TP3      O19699   4.839   1.589   9.484
 2891TP3     H119700   4.754   1.546   9.461
 2891TP3     H219701   4.892   1.556   9.410
 2892TP3      O19702   5.021   1.483   0.837
 2892TP3     H119703   4.995   1.392   0.863
 2892TP3     H219704   5.102   1.494   0.891
 2893TP3      O19705   5.215   1.577   9.425
 2893TP3     H119706   5.245   1.503   9.481
 2893TP3     H219707   5.303   1.604   9.392
 2894TP3      O19708   3.892   1.123   0.897
 2894TP3     H119709   3.910   1.031   0.868
 2894TP3     H219710   3.824   1.150   0.834
 2895TP3      O19711   4.341   1.169   9.433
 2895TP3     H119712   4.348   1.085   9.479
 2895TP3     H219713   4.389   1.148   9.351
 2896TP3      O19714   4.569   1.126   0.832
 2896TP3     H119715   4.537   1.161   0.746
 2896TP3     H219716   4.573   1.028   0.818
 2897TP3      O19717   5.138   1.108   0.570
 2897TP3     H119718   5.219   1.163   0.573
 2897TP3     H219719   5.071   1.178   0.573
 2898TP3      O19720   3.996   0.848   0.835
 2898TP3     H119721   4.036   0.761   0.828
 2898TP3     H219722   3.974   0.851   0.930
 2899TP3      O19723   4.461   0.967   9.662
 2899TP3     H119724   4.403   0.912   9.718
 2899TP3     H219725   4.492   0.900   9.597
 2900TP3      O19726   4.379   0.740   0.565
 2900TP3     H119727   4.322   0.814   0.589
 2900TP3     H219728   4.425   0.778   0.488
 2901TP3      O19729   4.567   0.792   9.474
 2901TP3     H119730   4.563   0.766   9.381
 2901TP3     H219731   4.664   0.794   9.492
 2902TP3      O19732   4.893   1.003   0.907
 2902TP3     H119733   4.985   0.993   0.883
 2902TP3     H219734   4.874   0.922   0.958
 2903TP3      O19735   5.491   1.010   9.419
 2903TP3     H119736   5.482   0.972   9.330
 2903TP3     H219737   5.513   1.103   9.403
 2904TP3      O19738   4.430   0.482   0.668
 2904TP3     H119739   4.438   0.414   0.599
 2904TP3     H219740   4.417   0.564   0.615
 2905TP3      O19741   4.467   0.321   0.430
 2905TP3     H119742   4.515   0.368   0.357
 2905TP3     H219743   4.377   0.313   0.393
 2906TP3      O19744   4.615   0.872   0.453
 2906TP3     H119745   4.692   0.856   0.398
 2906TP3     H219746   4.577   0.953   0.415
 2907TP3      O19747   5.052   0.639   0.940
 2907TP3     H119748   5.083   0.548   0.935
 2907TP3     H219749   5.135   0.688   0.946
 2908TP3      O19750   5.184   0.926   0.772
 2908TP3     H119751   5.165   0.997   0.708
 2908TP3     H219752   5.280   0.913   0.754
 2909TP3      O19753   4.270   0.606   0.864
 2909TP3     H119754   4.194   0.546   0.850
 2909TP3     H219755   4.335   0.571   0.801
 2910TP3      O19756   4.540   0.066   0.468
 2910TP3     H119757   4.522   0.162   0.461
 2910TP3     H219758   4.466   0.031   0.418
 2911TP3      O19759   4.670   0.493   0.833
 2911TP3     H119760   4.634   0.468   0.921
 2911TP3     H219761   4.593   0.473   0.776
 2912TP3      O19762   4.942   0.404   0.744
 2912TP3     H119763   4.846   0.413   0.756
 2912TP3     H219764   4.967   0.346   0.820
 2913TP3      O19765   5.103   0.282   0.931
 2913TP3     H119766   5.097   0.184   0.929
 2913TP3     H219767   5.074   0.304   1.023
 2914TP3      O19768   4.078   0.394   0.845
 2914TP3     H119769   4.102   0.320   0.786
 2914TP3     H219770   4.067   0.352   0.933
 2915TP3      O19771   4.534   5.520   0.728
 2915TP3     H119772   4.615   5.468   0.744
 2915TP3     H219773   4.549   5.550   0.636
 2916TP3      O19774   4.605   0.169   0.948
 2916TP3     H119775   4.586   0.113   0.871
 2916TP3     H219776   4.537   0.238   0.940
 2917TP3      O19777   4.543   1.859   9.580
 2917TP3     H119778   4.640   1.861   9.589
 2917TP3     H219779   4.529   1.916   9.505
 2918TP3      O19780   3.908   1.293   9.536
 2918TP3     H119781   4.000   1.323   9.550
 2918TP3     H219782   3.911   1.265   9.444
 2919TP3      O19783   3.779   1.846  10.026
 2919TP3     H119784   3.706   1.797   9.982
 2919TP3     H219785   3.806   1.783  10.095
 2920TP3      O19786   3.863   1.663  10.218
 2920TP3     H119787   3.824   1.578  10.240
 2920TP3     H219788   3.891   1.697  10.305
 2921TP3      O19789   5.415   1.264   0.972
 2921TP3     H119790   5.320   1.270   0.994
 2921TP3     H219791   5.447   1.354   0.983
 2922TP3      O19792   5.413   1.463   0.411
 2922TP3     H119793   5.350   1.516   0.462
 2922TP3     H219794   5.362   1.432   0.333
 2923TP3      O19795   5.457   0.614   9.493
 2923TP3     H119796   5.455   0.686   9.429
 2923TP3     H219797   5.436   0.535   9.442
 2924TP3      O19798   5.356   0.767  10.059
 2924TP3     H119799   5.354   0.670  10.057
 2924TP3     H219800   5.338   0.784  10.154
 2925TP3      O19801   3.869   0.973   0.151
 2925TP3     H119802   3.882   0.962   0.055
 2925TP3     H219803   3.958   0.951   0.183
 2926TP3      O19804   5.453   0.959   0.734
 2926TP3     H119805   5.508   0.881   0.725
 2926TP3     H219806   5.500   1.028   0.685
 2927TP3      O19807   5.331   0.524   9.903
 2927TP3     H119808   5.352   0.431   9.930
 2927TP3     H219809   5.411   0.552   9.857
 2928TP3      O19810   5.349   0.561   0.141
 2928TP3     H119811   5.445   0.573   0.118
 2928TP3     H219812   5.365   0.584   0.235
 2929TP3      O19813   5.405   0.646   0.410
 2929TP3     H119814   5.317   0.676   0.440
 2929TP3     H219815   5.449   0.728   0.384
 2930TP3      O19816   3.839   0.507   0.771
 2930TP3     H119817   3.929   0.471   0.786
 2930TP3     H219818   3.785   0.426   0.782
 2931TP3      O19819   5.357   0.263   9.936
 2931TP3     H119820   5.409   0.204   9.995
 2931TP3     H219821   5.316   0.195   9.877
 2932TP3      O19822   3.943   0.333   0.058
 2932TP3     H119823   3.998   0.255   0.073
 2932TP3     H219824   4.006   0.402   0.082
 2933TP3      O19825   3.780   0.634   0.154
 2933TP3     H119826   3.835   0.607   0.078
 2933TP3     H219827   3.830   0.712   0.180
 2934TP3      O19828   3.807   0.249   9.864
 2934TP3     H119829   3.715   0.282   9.867
 2934TP3     H219830   3.852   0.311   9.804
 2935TP3      O19831   5.285   1.756  10.077
 2935TP3     H119832   5.348   1.722  10.010
 2935TP3     H219833   5.344   1.798  10.142
 2936TP3      O19834   3.825   0.145   0.393
 2936TP3     H119835   3.762   0.105   0.454
 2936TP3     H219836   3.766   0.194   0.332
 2937TP3      O19837   4.037   1.438   0.803
 2937TP3     H119838   3.954   1.464   0.760
 2937TP3     H219839   4.011   1.430   0.895
 2938TP3      O19840   4.323   1.545   0.433
 2938TP3     H119841   4.298   1.635   0.409
 2938TP3     H219842   4.417   1.549   0.405
 2939TP3      O19843   4.753   1.686   0.720
 2939TP3     H119844   4.765   1.650   0.811
 2939TP3     H219845   4.844   1.719   0.700
 2940TP3      O19846   4.983   1.814   0.655
 2940TP3     H119847   5.055   1.753   0.633
 2940TP3     H219848   5.020   1.860   0.733
 2941TP3      O19849   5.456   0.052   0.584
 2941TP3     H119850   5.390   0.104   0.536
 2941TP3     H219851   5.483  -0.019   0.524
 2942TP3      O19852   4.066   1.866   0.428
 2942TP3     H119853   3.992   1.919   0.392
 2942TP3     H219854   4.040   1.852   0.520
 2943TP3      O19855   4.312   1.824   0.336
 2943TP3     H119856   4.223   1.842   0.375
 2943TP3     H219857   4.309   1.884   0.260
 2944TP3      O19858   4.782   1.815   0.253
 2944TP3     H119859   4.736   1.873   0.190
 2944TP3     H219860   4.796   1.876   0.329
 2945TP3      O19861   5.006   1.687   0.368
 2945TP3     H119862   4.928   1.721   0.321
 2945TP3     H219863   5.062   1.766   0.359
 2946TP3      O19864   5.256   1.851   0.379
 2946TP3     H119865   5.261   1.946   0.354
 2946TP3     H219866   5.290   1.808   0.298
 2947TP3      O19867   4.017   1.731   0.126
 2947TP3     H119868   4.005   1.683   0.210
 2947TP3     H219869   4.097   1.690   0.088
 2948TP3      O19870   4.222   1.602  -0.008
 2948TP3     H119871   4.208   1.509   0.018
 2948TP3     H219872   4.308   1.621   0.034
 2949TP3      O19873   4.481   1.649   0.080
 2949TP3     H119874   4.496   1.556   0.056
 2949TP3     H219875   4.487   1.646   0.177
 2950TP3      O19876   4.831   0.222  10.307
 2950TP3     H119877   4.762   0.159  10.339
 2950TP3     H219878   4.883   0.162  10.253
 2951TP3      O19879   5.339   0.040  10.308
 2951TP3     H119880   5.399   0.086  10.245
 2951TP3     H219881   5.252   0.066  10.270
 2952TP3      O19882  -0.028   0.148  10.137
 2952TP3     H119883   0.036   0.080  10.109
 2952TP3     H219884   0.029   0.221  10.165
 2953TP3      O19885   4.025   0.114  10.092
 2953TP3     H119886   3.958   0.072  10.036
 2953TP3     H219887   4.089   0.041  10.102
 2954TP3      O19888   3.960   0.100   9.662
 2954TP3     H119889   3.989   0.173   9.604
 2954TP3     H219890   3.889   0.137   9.718
 2955TP3      O19891   4.515   0.106  10.095
 2955TP3     H119892   4.609   0.118  10.072
 2955TP3     H219893   4.522   0.054  10.175
 2956TP3      O19894   5.105   0.089  10.208
 2956TP3     H119895   5.072   0.103  10.119
 2956TP3     H219896   5.057   0.009  10.240
 2957TP3      O19897   5.222   0.094   9.802
 2957TP3     H119898   5.140   0.140   9.778
 2957TP3     H219899   5.183   0.005   9.808
 2958TP3      O19900   3.931   1.648   9.773
 2958TP3     H119901   3.864   1.643   9.703
 2958TP3     H219902   3.937   1.745   9.780
 2959TP3      O19903   4.121   0.265   9.515
 2959TP3     H119904   4.162   0.189   9.469
 2959TP3     H219905   4.187   0.281   9.584
 2960TP3      O19906   4.612   0.270   9.768
 2960TP3     H119907   4.663   0.220   9.835
 2960TP3     H219908   4.630   0.360   9.804
 2961TP3      O19909   4.819   1.822   9.592
 2961TP3     H119910   4.917   1.810   9.590
 2961TP3     H219911   4.800   1.736   9.548
 2962TP3      O19912   5.439   1.723   9.859
 2962TP3     H119913   5.452   1.640   9.809
 2962TP3     H219914   5.469   1.790   9.792
 2963TP3      O19915   4.069   0.148   0.697
 2963TP3     H119916   4.009   0.077   0.728
 2963TP3     H219917   4.148   0.130   0.754
 2964TP3      O19918   4.256   0.089   0.876
 2964TP3     H119919   4.348   0.055   0.868
 2964TP3     H219920   4.215   0.007   0.910
 2965TP3      O19921   4.145   1.780   9.473
 2965TP3     H119922   4.087   1.779   9.550
 2965TP3     H219923   4.184   1.692   9.477
 2966TP3      O19924   5.092   5.543   0.880
 2966TP3     H119925   5.078   5.496   0.965
 2966TP3     H219926   5.183   5.518   0.864
 2967TP3      O19927   5.408   1.603   0.772
 2967TP3     H119928   5.338   1.588   0.706
 2967TP3     H219929   5.401   1.700   0.781
 2968TP3      O19930   1.202   2.880  10.076
 2968TP3     H119931   1.196   2.978  10.077
 2968TP3     H219932   1.127   2.857  10.020
 2969TP3      O19933   1.085   2.799   0.110
 2969TP3     H119934   1.085   2.739   0.186
 2969TP3     H219935   1.043   2.745   0.040
 2970TP3      O19936   0.318   2.771   0.270
 2970TP3     H119937   0.325   2.699   0.335
 2970TP3     H219938   0.395   2.825   0.291
 2971TP3      O19939   1.447   3.095  10.260
 2971TP3     H119940   1.411   3.023  10.311
 2971TP3     H219941   1.456   3.165  10.327
 2972TP3      O19942   0.406   3.216   0.112
 2972TP3     H119943   0.380   3.126   0.084
 2972TP3     H219944   0.502   3.202   0.117
 2973TP3      O19945   0.090   2.581   9.964
 2973TP3     H119946   0.031   2.655   9.987
 2973TP3     H219947   0.026   2.512   9.946
 2974TP3      O19948   0.150   2.791  10.206
 2974TP3     H119949   0.182   2.707  10.244
 2974TP3     H219950   0.215   2.810  10.138
 2975TP3      O19951   1.167   3.617  10.286
 2975TP3     H119952   1.230   3.549  10.249
 2975TP3     H219953   1.136   3.570  10.363
 2976TP3      O19954   0.922   3.040   0.169
 2976TP3     H119955   0.953   2.981   0.099
 2976TP3     H219956   1.007   3.058   0.214
 2977TP3      O19957   1.777   2.209   0.229
 2977TP3     H119958   1.798   2.265   0.307
 2977TP3     H219959   1.841   2.247   0.166
 2978TP3      O19960   1.239   2.488   0.197
 2978TP3     H119961   1.259   2.393   0.200
 2978TP3     H219962   1.229   2.500   0.101
 2979TP3      O19963   0.548   2.295  10.226
 2979TP3     H119964   0.561   2.380  10.179
 2979TP3     H219965   0.509   2.243  10.152
 2980TP3      O19966   1.323   2.304  10.067
 2980TP3     H119967   1.385   2.274  10.136
 2980TP3     H219968   1.380   2.365  10.017
 2981TP3      O19969   0.235   2.547  10.293
 2981TP3     H119970   0.283   2.482  10.345
 2981TP3     H219971   0.234   2.503  10.205
 2982TP3      O19972   0.724   2.695  10.240
 2982TP3     H119973   0.794   2.637  10.272
 2982TP3     H219974   0.677   2.633  10.181
 2983TP3      O19975   1.821   2.346   0.460
 2983TP3     H119976   1.768   2.427   0.444
 2983TP3     H219977   1.825   2.347   0.557
 2984TP3      O19978   0.439   2.186   0.316
 2984TP3     H119979   0.418   2.248   0.244
 2984TP3     H219980   0.371   2.211   0.384
 2985TP3      O19981   1.162   3.133   9.985
 2985TP3     H119982   1.144   3.113   9.892
 2985TP3     H219983   1.137   3.227   9.992
 2986TP3      O19984   0.689   2.951   0.337
 2986TP3     H119985   0.620   3.014   0.367
 2986TP3     H219986   0.760   3.012   0.310
 2987TP3      O19987   1.509   2.242  10.266
 2987TP3     H119988   1.485   2.166  10.319
 2987TP3     H219989   1.577   2.284  10.321
 2988TP3      O19990   0.405   2.370   0.122
 2988TP3     H119991   0.460   2.446   0.152
 2988TP3     H219992   0.455   2.339   0.042
 2989TP3      O19993   0.540   3.155   0.416
 2989TP3     H119994   0.533   3.248   0.389
 2989TP3     H219995   0.454   3.144   0.462
 2990TP3      O19996   0.142   3.107   9.815
 2990TP3     H119997   0.124   3.139   9.724
 2990TP3     H219998   0.152   3.190   9.864
 2991TP3      O19999   1.504   3.284   0.177
 2991TP3     H120000   1.407   3.296   0.190
 2991TP3     H220001   1.530   3.374   0.153
 2992TP3      O20002   1.538   2.108   0.314
 2992TP3     H120003   1.467   2.173   0.301
 2992TP3     H220004   1.612   2.149   0.266
 2993TP3      O20005   0.836   1.919   0.066
 2993TP3     H120006   0.838   1.821   0.071
 2993TP3     H220007   0.773   1.942   0.136
 2994TP3      O20008   1.332   3.461  10.152
 2994TP3     H120009   1.370   3.387  10.100
 2994TP3     H220010   1.386   3.536  10.117
 2995TP3      O20011   1.453   3.253  10.003
 2995TP3     H120012   1.423   3.185   9.940
 2995TP3     H220013   1.457   3.202  10.086
 2996TP3      O20014   1.605   3.115   0.537
 2996TP3     H120015   1.631   3.045   0.473
 2996TP3     H220016   1.638   3.195   0.492
 2997TP3      O20017   1.063   2.801   9.824
 2997TP3     H120018   0.998   2.863   9.784
 2997TP3     H220019   1.138   2.811   9.763
 2998TP3      O20020   1.069   2.662   9.543
 2998TP3     H120021   1.144   2.665   9.606
 2998TP3     H220022   1.103   2.598   9.480
 2999TP3      O20023   1.804   2.747   0.336
 2999TP3     H120024   1.741   2.821   0.341
 2999TP3     H220025   1.858   2.774   0.260
 3000TP3      O20026   1.415   2.820   9.925
 3000TP3     H120027   1.340   2.845   9.984
 3000TP3     H220028   1.464   2.756   9.980
 3001TP3      O20029   1.405   2.639   0.522
 3001TP3     H120030   1.403   2.723   0.570
 3001TP3     H220031   1.343   2.664   0.450
 3002TP3      O20032   0.577   2.889  10.115
 3002TP3     H120033   0.543   2.850  10.031
 3002TP3     H220034   0.636   2.818  10.149
 3003TP3      O20035   0.705   3.227   0.065
 3003TP3     H120036   0.705   3.178  -0.019
 3003TP3     H220037   0.781   3.189   0.111
 3004TP3      O20038   0.603   2.762   0.168
 3004TP3     H120039   0.653   2.769   0.084
 3004TP3     H220040   0.645   2.830   0.225
 3005TP3      O20041   1.248   3.321   0.237
 3005TP3     H120042   1.219   3.383   0.305
 3005TP3     H220043   1.225   3.235   0.277
 3006TP3      O20044   0.700   3.206   0.635
 3006TP3     H120045   0.650   3.274   0.686
 3006TP3     H220046   0.636   3.185   0.563
 3007TP3      O20047   1.302   2.748   9.689
 3007TP3     H120048   1.355   2.768   9.771
 3007TP3     H220049   1.344   2.803   9.619
 3008TP3      O20050   0.395   2.821   0.553
 3008TP3     H120051   0.401   2.895   0.616
 3008TP3     H220052   0.301   2.827   0.528
 3009TP3      O20053   1.068   3.414  10.039
 3009TP3     H120054   1.110   3.448  10.119
 3009TP3     H220055   1.017   3.489  10.007
 3010TP3      O20056   0.525   3.403   0.711
 3010TP3     H120057   0.515   3.398   0.614
 3010TP3     H220058   0.432   3.395   0.740
 3011TP3      O20059   1.673   1.915   9.683
 3011TP3     H120060   1.576   1.923   9.697
 3011TP3     H220061   1.693   2.000   9.640
 3012TP3      O20062   0.474   2.789   9.869
 3012TP3     H120063   0.437   2.866   9.823
 3012TP3     H220064   0.408   2.721   9.850
 3013TP3      O20065   1.808   3.343   9.562
 3013TP3     H120066   1.803   3.438   9.539
 3013TP3     H220067   1.894   3.322   9.522
 3014TP3      O20068   0.100   3.035   0.445
 3014TP3     H120069   0.056   3.027   0.359
 3014TP3     H220070   0.085   2.943   0.475
 3015TP3      O20071   0.067   3.325   0.110
 3015TP3     H120072   0.150   3.281   0.134
 3015TP3     H220073   0.051   3.378   0.188
 3016TP3      O20074   1.831   3.319   0.776
 3016TP3     H120075   1.867   3.294   0.690
 3016TP3     H220076   1.770   3.390   0.751
 3017TP3      O20077   0.971   3.330   0.583
 3017TP3     H120078   0.976   3.413   0.634
 3017TP3     H220079   0.884   3.292   0.608
 3018TP3      O20080   1.018   3.704   9.871
 3018TP3     H120081   1.012   3.705   9.774
 3018TP3     H220082   1.022   3.798   9.895
 3019TP3      O20083   0.382   3.591  10.060
 3019TP3     H120084   0.398   3.553  10.149
 3019TP3     H220085   0.297   3.550  10.037
 3020TP3      O20086   1.304   3.636   9.578
 3020TP3     H120087   1.356   3.565   9.532
 3020TP3     H220088   1.326   3.611   9.669
 3021TP3      O20089   1.292   3.623   9.857
 3021TP3     H120090   1.195   3.628   9.872
 3021TP3     H220091   1.314   3.545   9.910
 3022TP3      O20092   1.588   2.518   0.745
 3022TP3     H120093   1.540   2.565   0.674
 3022TP3     H220094   1.586   2.427   0.714
 3023TP3      O20095   0.311   3.167   0.551
 3023TP3     H120096   0.318   3.133   0.641
 3023TP3     H220097   0.223   3.131   0.523
 3024TP3      O20098   0.573   2.025   0.140
 3024TP3     H120099   0.480   2.002   0.116
 3024TP3     H220100   0.554   2.099   0.201
 3025TP3      O20101   1.043   1.975   0.471
 3025TP3     H120102   1.080   1.934   0.552
 3025TP3     H220103   0.945   1.970   0.487
 3026TP3      O20104   1.365   2.367   0.565
 3026TP3     H120105   1.307   2.343   0.642
 3026TP3     H220106   1.347   2.461   0.546
 3027TP3      O20107   1.449   2.853   9.485
 3027TP3     H120108   1.445   2.847   9.388
 3027TP3     H220109   1.536   2.896   9.493
 3028TP3      O20110   1.018   2.250   9.552
 3028TP3     H120111   0.975   2.227   9.636
 3028TP3     H220112   1.011   2.168   9.500
 3029TP3      O20113   0.583   2.514   0.271
 3029TP3     H120114   0.509   2.516   0.334
 3029TP3     H220115   0.577   2.603   0.230
 3030TP3      O20116   0.582   2.512  10.070
 3030TP3     H120117   0.486   2.499  10.055
 3030TP3     H220118   0.616   2.493   9.980
 3031TP3      O20119   1.137   2.572   9.939
 3031TP3     H120120   1.098   2.656   9.906
 3031TP3     H220121   1.203   2.554   9.869
 3032TP3      O20122   1.035   2.595   0.769
 3032TP3     H120123   0.987   2.514   0.799
 3032TP3     H220124   1.119   2.587   0.817
 3033TP3      O20125   1.238   2.524  10.233
 3033TP3     H120126   1.207   2.581  10.161
 3033TP3     H220127   1.245   2.439  10.185
 3034TP3      O20128   0.339   2.535   0.429
 3034TP3     H120129   0.356   2.571   0.518
 3034TP3     H220130   0.307   2.445   0.450
 3035TP3      O20131   0.693   2.319   9.479
 3035TP3     H120132   0.639   2.246   9.519
 3035TP3     H220133   0.642   2.352   9.405
 3036TP3      O20134   0.038   2.289  10.131
 3036TP3     H120135   0.083   2.261  10.214
 3036TP3     H220136   0.070   2.227  10.064
 3037TP3      O20137   0.138   2.328   9.683
 3037TP3     H120138   0.198   2.372   9.619
 3037TP3     H220139   0.070   2.395   9.692
 3038TP3      O20140   1.153   2.678   0.363
 3038TP3     H120141   1.195   2.608   0.309
 3038TP3     H220142   1.103   2.626   0.430
 3039TP3      O20143   0.834   2.266  10.167
 3039TP3     H120144   0.744   2.287  10.195
 3039TP3     H220145   0.885   2.261  10.249
 3040TP3      O20146   0.316   2.430  10.056
 3040TP3     H120147   0.229   2.453  10.019
 3040TP3     H220148   0.332   2.343  10.016
 3041TP3      O20149   0.676   2.443   9.817
 3041TP3     H120150   0.772   2.450   9.831
 3041TP3     H220151   0.655   2.505   9.746
 3042TP3      O20152   1.276   2.204   0.172
 3042TP3     H120153   1.210   2.204   0.245
 3042TP3     H220154   1.226   2.171   0.097
 3043TP3      O20155   0.550   2.562   9.578
 3043TP3     H120156   0.497   2.522   9.508
 3043TP3     H220157   0.634   2.578   9.534
 3044TP3      O20158   1.592   3.771   0.809
 3044TP3     H120159   1.627   3.795   0.721
 3044TP3     H220160   1.669   3.793   0.865
 3045TP3      O20161   0.380   3.006   0.763
 3045TP3     H120162   0.447   3.035   0.827
 3045TP3     H220163   0.300   3.014   0.820
 3046TP3      O20164   0.961   2.552   0.038
 3046TP3     H120165   1.028   2.503  -0.011
 3046TP3     H220166   0.949   2.498   0.117
 3047TP3      O20167   0.475   2.159  10.014
 3047TP3     H120168   0.429   2.074  10.000
 3047TP3     H220169   0.540   2.159   9.943
 3048TP3      O20170   0.824   2.381   0.283
 3048TP3     H120171   0.747   2.441   0.289
 3048TP3     H220172   0.885   2.420   0.348
 3049TP3      O20173   0.884   3.003   9.773
 3049TP3     H120174   0.802   2.959   9.742
 3049TP3     H220175   0.861   3.023   9.866
 3050TP3      O20176   1.612   2.933   0.332
 3050TP3     H120177   1.664   2.983   0.265
 3050TP3     H220178   1.524   2.930   0.290
 3051TP3      O20179   1.279   2.287   9.587
 3051TP3     H120180   1.183   2.300   9.570
 3051TP3     H220181   1.307   2.374   9.619
 3052TP3      O20182   1.035   3.041   0.577
 3052TP3     H120183   1.002   2.992   0.653
 3052TP3     H220184   1.003   3.131   0.593
 3053TP3      O20185   1.343   2.487   9.752
 3053TP3     H120186   1.430   2.471   9.794
 3053TP3     H220187   1.357   2.569   9.702
 3054TP3      O20188   0.401   2.952   0.033
 3054TP3     H120189   0.460   2.942  -0.043
 3054TP3     H220190   0.406   2.866   0.077
 3055TP3      O20191   1.096   3.151   9.684
 3055TP3     H120192   1.055   3.237   9.708
 3055TP3     H220193   1.022   3.088   9.697
 3056TP3      O20194   0.111   2.777   0.546
 3056TP3     H120195   0.133   2.739   0.633
 3056TP3     H220196   0.038   2.722   0.516
 3057TP3      O20197   0.797   2.746   0.772
 3057TP3     H120198   0.762   2.706   0.691
 3057TP3     H220199   0.887   2.709   0.772
 3058TP3      O20200   1.270   3.279   0.576
 3058TP3     H120201   1.178   3.295   0.551
 3058TP3     H220202   1.267   3.310   0.668
 3059TP3      O20203   1.830   2.492   9.731
 3059TP3     H120204   1.775   2.465   9.656
 3059TP3     H220205   1.841   2.587   9.709
 3060TP3      O20206   1.829   3.065   0.686
 3060TP3     H120207   1.744   3.107   0.661
 3060TP3     H220208   1.884   3.079   0.607
 3061TP3      O20209   1.643   3.382   9.763
 3061TP3     H120210   1.626   3.295   9.801
 3061TP3     H220211   1.701   3.362   9.686
 3062TP3      O20212   1.385   2.861   0.160
 3062TP3     H120213   1.291   2.842   0.144
 3062TP3     H220214   1.428   2.787   0.113
 3063TP3      O20215   0.636   3.295  10.089
 3063TP3     H120216   0.684   3.377  10.068
 3063TP3     H220217   0.548   3.317  10.054
 3064TP3      O20218   0.210   2.764   9.568
 3064TP3     H120219   0.269   2.840   9.584
 3064TP3     H220220   0.123   2.806   9.570
 3065TP3      O20221   0.772   3.062  10.031
 3065TP3     H120222   0.738   3.152  10.046
 3065TP3     H220223   0.709   3.007  10.082
 3066TP3      O20224   0.818   3.479   0.372
 3066TP3     H120225   0.868   3.553   0.335
 3066TP3     H220226   0.884   3.441   0.433
 3067TP3      O20227   0.647   3.556   9.993
 3067TP3     H120228   0.551   3.571  10.007
 3067TP3     H220229   0.682   3.642  10.023
 3068TP3      O20230   1.166   3.074   0.324
 3068TP3     H120231   1.141   3.057   0.417
 3068TP3     H220232   1.232   3.005   0.306
 3069TP3      O20233   1.407   3.186   9.559
 3069TP3     H120234   1.430   3.137   9.641
 3069TP3     H220235   1.312   3.167   9.556
 3070TP3      O20236   1.452   3.540   0.571
 3070TP3     H120237   1.383   3.488   0.525
 3070TP3     H220238   1.476   3.604   0.502
 3071TP3      O20239   1.850   3.629   9.576
 3071TP3     H120240   1.919   3.693   9.552
 3071TP3     H220241   1.779   3.689   9.609
 3072TP3      O20242   0.261   2.261   0.507
 3072TP3     H120243   0.174   2.302   0.516
 3072TP3     H220244   0.250   2.179   0.559
 3073TP3      O20245   1.482   3.046   9.779
 3073TP3     H120246   1.460   2.963   9.826
 3073TP3     H220247   1.578   3.053   9.796
 3074TP3      O20248   0.229   3.437   0.347
 3074TP3     H120249   0.255   3.343   0.353
 3074TP3     H220250   0.245   3.466   0.437
 3075TP3      O20251   0.692   3.250   9.646
 3075TP3     H120252   0.730   3.193   9.714
 3075TP3     H220253   0.706   3.340   9.681
 3076TP3      O20254   0.349   2.971   9.689
 3076TP3     H120255   0.282   3.012   9.748
 3076TP3     H220256   0.403   3.047   9.663
 3077TP3      O20257   1.136   2.238   0.416
 3077TP3     H120258   1.209   2.247   0.479
 3077TP3     H220259   1.099   2.151   0.439
 3078TP3      O20260   1.205   2.193   9.841
 3078TP3     H120261   1.231   2.234   9.757
 3078TP3     H220262   1.265   2.237   9.902
 3079TP3      O20263   0.977   3.413   9.725
 3079TP3     H120264   0.892   3.460   9.721
 3079TP3     H220265   1.030   3.454   9.653
 3080TP3      O20266   0.933   2.368   9.916
 3080TP3     H120267   1.007   2.431   9.921
 3080TP3     H220268   0.903   2.357  10.008
 3081TP3      O20269   0.991   2.474   0.523
 3081TP3     H120270   0.998   2.527   0.606
 3081TP3     H220271   1.056   2.404   0.531
 3082TP3      O20272   1.012   2.072   9.998
 3082TP3     H120273   0.983   2.140  10.060
 3082TP3     H220274   1.088   2.123   9.957
 3083TP3      O20275   0.718   3.516   9.721
 3083TP3     H120276   0.734   3.599   9.672
 3083TP3     H220277   0.688   3.549   9.809
 3084TP3      O20278   0.579   2.184   9.683
 3084TP3     H120279   0.575   2.275   9.717
 3084TP3     H220280   0.671   2.162   9.709
 3085TP3      O20281   1.601   2.258   0.607
 3085TP3     H120282   1.510   2.293   0.591
 3085TP3     H220283   1.634   2.255   0.516
 3086TP3      O20284   1.469   2.638   0.003
 3086TP3     H120285   1.386   2.591  -0.021
 3086TP3     H220286   1.520   2.571   0.053
 3087TP3      O20287   0.406   3.236   9.574
 3087TP3     H120288   0.473   3.291   9.614
 3087TP3     H220289   0.460   3.180   9.515
 3088TP3      O20290   0.242   2.497   9.490
 3088TP3     H120291   0.251   2.591   9.514
 3088TP3     H220292   0.152   2.490   9.462
 3089TP3      O20293   1.573   3.577   0.174
 3089TP3     H120294   1.569   3.637   0.097
 3089TP3     H220295   1.670   3.571   0.186
 3090TP3      O20296   0.330   1.973   0.054
 3090TP3     H120297   0.310   1.977  -0.042
 3090TP3     H220298   0.280   1.892   0.079
 3091TP3      O20299   0.219   3.370   9.976
 3091TP3     H120300   0.130   3.406   9.970
 3091TP3     H220301   0.259   3.417   9.901
 3092TP3      O20302   0.142   3.636   0.798
 3092TP3     H120303   0.204   3.609   0.868
 3092TP3     H220304   0.099   3.551   0.778
 3093TP3      O20305   0.613   3.527   0.949
 3093TP3     H120306   0.685   3.475   0.986
 3093TP3     H220307   0.605   3.494   0.858
 3094TP3      O20308   1.068   3.474   9.484
 3094TP3     H120309   0.983   3.431   9.460
 3094TP3     H220310   1.122   3.443   9.410
 3095TP3      O20311   1.243   3.368   0.836
 3095TP3     H120312   1.216   3.277   0.864
 3095TP3     H220313   1.326   3.379   0.888
 3096TP3      O20314   1.441   3.464   9.441
 3096TP3     H120315   1.469   3.384   9.490
 3096TP3     H220316   1.523   3.474   9.389
 3097TP3      O20317   0.143   3.034   0.872
 3097TP3     H120318   0.148   2.936   0.877
 3097TP3     H220319   0.055   3.047   0.835
 3098TP3      O20320   0.566   3.052   9.434
 3098TP3     H120321   0.577   2.969   9.481
 3098TP3     H220322   0.616   3.033   9.353
 3099TP3      O20323   0.799   3.012   0.832
 3099TP3     H120324   0.766   3.047   0.746
 3099TP3     H220325   0.802   2.914   0.818
 3100TP3      O20326   1.366   2.995   0.577
 3100TP3     H120327   1.449   3.049   0.574
 3100TP3     H220328   1.300   3.066   0.576
 3101TP3      O20329   0.212   2.728   0.834
 3101TP3     H120330   0.268   2.649   0.830
 3101TP3     H220331   0.198   2.735   0.930
 3102TP3      O20332   0.689   2.854   9.661
 3102TP3     H120333   0.632   2.799   9.718
 3102TP3     H220334   0.722   2.786   9.597
 3103TP3      O20335   0.607   2.626   0.566
 3103TP3     H120336   0.547   2.698   0.592
 3103TP3     H220337   0.653   2.665   0.489
 3104TP3      O20338   0.796   2.677   9.475
 3104TP3     H120339   0.790   2.652   9.382
 3104TP3     H220340   0.894   2.679   9.492
 3105TP3      O20341   1.121   2.888   0.906
 3105TP3     H120342   1.215   2.878   0.884
 3105TP3     H220343   1.102   2.809   0.959
 3106TP3      O20344   1.701   2.924   9.423
 3106TP3     H120345   1.698   2.872   9.341
 3106TP3     H220346   1.734   3.011   9.395
 3107TP3      O20347   0.662   2.366   0.668
 3107TP3     H120348   0.666   2.296   0.600
 3107TP3     H220349   0.645   2.447   0.616
 3108TP3      O20350   0.692   2.198   0.426
 3108TP3     H120351   0.741   2.252   0.359
 3108TP3     H220352   0.600   2.201   0.394
 3109TP3      O20353   0.844   2.759   0.453
 3109TP3     H120354   0.920   2.741   0.398
 3109TP3     H220355   0.806   2.840   0.415
 3110TP3      O20356   1.285   2.525   0.945
 3110TP3     H120357   1.313   2.432   0.936
 3110TP3     H220358   1.369   2.572   0.953
 3111TP3      O20359   1.424   2.808   0.772
 3111TP3     H120360   1.396   2.877   0.708
 3111TP3     H220361   1.520   2.806   0.752
 3112TP3      O20362   0.497   2.492   0.864
 3112TP3     H120363   0.424   2.429   0.853
 3112TP3     H220364   0.561   2.455   0.800
 3113TP3      O20365   0.772   1.947   0.459
 3113TP3     H120366   0.747   2.043   0.459
 3113TP3     H220367   0.694   1.908   0.416
 3114TP3      O20368   0.901   2.380   0.836
 3114TP3     H120369   0.863   2.355   0.923
 3114TP3     H220370   0.826   2.359   0.777
 3115TP3      O20371   1.169   2.294   0.747
 3115TP3     H120372   1.073   2.303   0.756
 3115TP3     H220373   1.193   2.231   0.818
 3116TP3      O20374   1.325   2.155   0.928
 3116TP3     H120375   1.325   2.058   0.933
 3116TP3     H220376   1.307   2.185   1.019
 3117TP3      O20377   0.313   2.281   0.844
 3117TP3     H120378   0.323   2.203   0.787
 3117TP3     H220379   0.289   2.240   0.930
 3118TP3      O20380   0.793   1.892   0.735
 3118TP3     H120381   0.859   1.820   0.737
 3118TP3     H220382   0.779   1.897   0.638
 3119TP3      O20383   0.828   2.047   0.956
 3119TP3     H120384   0.809   1.995   0.874
 3119TP3     H220385   0.770   2.125   0.945
 3120TP3      O20386   0.773   3.744   9.582
 3120TP3     H120387   0.871   3.746   9.589
 3120TP3     H220388   0.757   3.802   9.507
 3121TP3      O20389   0.140   3.180   9.544
 3121TP3     H120390   0.232   3.212   9.556
 3121TP3     H220391   0.145   3.149   9.453
 3122TP3      O20392   5.579   3.735  10.026
 3122TP3     H120393   5.501   3.701   9.977
 3122TP3     H220394   5.582   3.667  10.096
 3123TP3      O20395   0.089   3.552  10.215
 3123TP3     H120396   0.062   3.461  10.236
 3123TP3     H220397   0.128   3.580  10.301
 3124TP3      O20398   1.845   3.632   0.193
 3124TP3     H120399   1.851   3.639   0.290
 3124TP3     H220400   1.918   3.688   0.165
 3125TP3      O20401   1.779   3.594   0.475
 3125TP3     H120402   1.749   3.508   0.439
 3125TP3     H220403   1.849   3.559   0.536
 3126TP3      O20404   1.645   3.152   0.966
 3126TP3     H120405   1.553   3.163   0.997
 3126TP3     H220406   1.684   3.240   0.983
 3127TP3      O20407   1.782   2.995   9.807
 3127TP3     H120408   1.867   3.036   9.832
 3127TP3     H220409   1.774   2.928   9.878
 3128TP3      O20410   1.812   2.804  10.000
 3128TP3     H120411   1.734   2.755  10.038
 3128TP3     H220412   1.871   2.811  10.078
 3129TP3      O20413   1.790   3.069   0.185
 3129TP3     H120414   1.867   3.026   0.143
 3129TP3     H220415   1.809   3.164   0.169
 3130TP3      O20416   1.648   3.360   0.407
 3130TP3     H120417   1.580   3.395   0.467
 3130TP3     H220418   1.593   3.323   0.335
 3131TP3      O20419   1.842   2.782   9.635
 3131TP3     H120420   1.776   2.813   9.571
 3131TP3     H220421   1.834   2.851   9.704
 3132TP3      O20422   1.629   2.505   9.496
 3132TP3     H120423   1.685   2.564   9.444
 3132TP3     H220424   1.664   2.421   9.464
 3133TP3      O20425   1.594   2.651  10.061
 3133TP3     H120426   1.582   2.555  10.050
 3133TP3     H220427   1.568   2.664  10.155
 3134TP3      O20428   0.094   2.850   0.153
 3134TP3     H120429   0.106   2.854   0.056
 3134TP3     H220430   0.185   2.835   0.183
 3135TP3      O20431   1.684   2.844   0.715
 3135TP3     H120432   1.746   2.769   0.724
 3135TP3     H220433   1.745   2.921   0.713
 3136TP3      O20434   1.832   2.629   0.775
 3136TP3     H120435   1.743   2.591   0.763
 3136TP3     H220436   1.889   2.549   0.772
 3137TP3      O20437   1.561   2.407   9.909
 3137TP3     H120438   1.588   2.313   9.918
 3137TP3     H220439   1.638   2.443   9.863
 3138TP3      O20440   1.628   2.462   0.135
 3138TP3     H120441   1.725   2.483   0.133
 3138TP3     H220442   1.611   2.475   0.229
 3139TP3      O20443   1.635   2.533   0.410
 3139TP3     H120444   1.545   2.561   0.439
 3139TP3     H220445   1.678   2.619   0.388
 3140TP3      O20446   0.079   2.387   0.758
 3140TP3     H120447   0.167   2.359   0.789
 3140TP3     H220448   0.021   2.313   0.782
 3141TP3      O20449   1.866   1.946   0.942
 3141TP3     H120450   1.899   1.877   0.882
 3141TP3     H220451   1.868   2.024   0.883
 3142TP3      O20452   1.631   2.137   9.907
 3142TP3     H120453   1.657   2.096   9.992
 3142TP3     H220454   1.574   2.069   9.865
 3143TP3      O20455   0.178   2.214   0.042
 3143TP3     H120456   0.228   2.135   0.071
 3143TP3     H220457   0.226   2.283   0.090
 3144TP3      O20458   0.061   2.523   0.175
 3144TP3     H120459   0.101   2.507   0.087
 3144TP3     H220460   0.074   2.619   0.180
 3145TP3      O20461   1.813   2.153   0.777
 3145TP3     H120462   1.720   2.182   0.773
 3145TP3     H220463   1.811   2.094   0.699
 3146TP3      O20464   1.812   2.144   9.568
 3146TP3     H120465   1.851   2.074   9.515
 3146TP3     H220466   1.883   2.210   9.568
 3147TP3      O20467   0.072   2.145   9.862
 3147TP3     H120468  -0.024   2.161   9.858
 3147TP3     H220469   0.106   2.202   9.791
 3148TP3      O20470   1.516   3.637  10.074
 3148TP3     H120471   1.585   3.610  10.010
 3148TP3     H220472   1.567   3.689  10.139
 3149TP3      O20473   0.057   2.009   0.366
 3149TP3     H120474   0.008   2.006   0.450
 3149TP3     H220475   0.002   2.074   0.320
 3150TP3      O20476   0.260   3.337   0.808
 3150TP3     H120477   0.175   3.348   0.764
 3150TP3     H220478   0.237   3.309   0.897
 3151TP3      O20479   0.551   3.430   0.435
 3151TP3     H120480   0.521   3.520   0.411
 3151TP3     H220481   0.644   3.435   0.405
 3152TP3      O20482   0.985   3.572   0.719
 3152TP3     H120483   0.992   3.536   0.810
 3152TP3     H220484   1.076   3.602   0.701
 3153TP3      O20485   1.215   3.707   0.649
 3153TP3     H120486   1.287   3.644   0.631
 3153TP3     H220487   1.246   3.745   0.734
 3154TP3      O20488   1.717   1.959   0.570
 3154TP3     H120489   1.636   1.991   0.527
 3154TP3     H220490   1.731   1.874   0.521
 3155TP3      O20491   0.291   3.755   0.432
 3155TP3     H120492   0.218   3.805   0.387
 3155TP3     H220493   0.259   3.737   0.521
 3156TP3      O20494   0.540   3.713   0.341
 3156TP3     H120495   0.451   3.734   0.379
 3156TP3     H220496   0.540   3.768   0.261
 3157TP3      O20497   1.021   3.703   0.248
 3157TP3     H120498   0.960   3.750   0.189
 3157TP3     H220499   1.011   3.753   0.332
 3158TP3      O20500   1.233   3.571   0.372
 3158TP3     H120501   1.157   3.604   0.319
 3158TP3     H220502   1.297   3.642   0.357
 3159TP3      O20503   1.480   3.740   0.370
 3159TP3     H120504   1.510   3.832   0.352
 3159TP3     H220505   1.521   3.692   0.294
 3160TP3      O20506   0.241   3.618   0.116
 3160TP3     H120507   0.231   3.576   0.204
 3160TP3     H220508   0.322   3.575   0.084
 3161TP3      O20509   0.446   3.488  -0.008
 3161TP3     H120510   0.433   3.395   0.018
 3161TP3     H220511   0.533   3.507   0.034
 3162TP3      O20512   0.710   3.535   0.079
 3162TP3     H120513   0.724   3.441   0.056
 3162TP3     H220514   0.715   3.532   0.176
 3163TP3      O20515   1.047   2.099  10.297
 3163TP3     H120516   0.995   2.032  10.343
 3163TP3     H220517   1.114   2.046  10.253
 3164TP3      O20518   1.571   1.900  10.307
 3164TP3     H120519   1.629   1.964  10.258
 3164TP3     H220520   1.481   1.938  10.290
 3165TP3      O20521   1.733   2.034  10.138
 3165TP3     H120522   1.800   1.973  10.101
 3165TP3     H220523   1.788   2.115  10.152
 3166TP3      O20524   0.301   1.961  10.092
 3166TP3     H120525   0.217   1.952  10.042
 3166TP3     H220526   0.330   1.868  10.082
 3167TP3      O20527   0.190   1.937   9.679
 3167TP3     H120528   0.219   1.999   9.610
 3167TP3     H220529   0.121   1.989   9.724
 3168TP3      O20530   0.745   1.970  10.064
 3168TP3     H120531   0.832   2.003  10.035
 3168TP3     H220532   0.773   1.894  10.114
 3169TP3      O20533   1.315   1.958  10.232
 3169TP3     H120534   1.302   1.973  10.137
 3169TP3     H220535   1.272   1.870  10.245
 3170TP3      O20536   1.437   1.955   9.799
 3170TP3     H120537   1.365   2.016   9.783
 3170TP3     H220538   1.390   1.873   9.828
 3171TP3      O20539   0.175   3.540   9.765
 3171TP3     H120540   0.105   3.527   9.699
 3171TP3     H220541   0.171   3.637   9.775
 3172TP3      O20542   0.350   2.127   9.517
 3172TP3     H120543   0.399   2.062   9.467
 3172TP3     H220544   0.416   2.161   9.579
 3173TP3      O20545   0.849   2.154   9.758
 3173TP3     H120546   0.885   2.101   9.831
 3173TP3     H220547   0.865   2.243   9.798
 3174TP3      O20548   1.044   3.707   9.593
 3174TP3     H120549   1.142   3.696   9.592
 3174TP3     H220550   1.028   3.622   9.547
 3175TP3      O20551   1.709   3.615   9.879
 3175TP3     H120552   1.692   3.535   9.823
 3175TP3     H220553   1.700   3.686   9.813
 3176TP3      O20554   0.279   2.019   0.721
 3176TP3     H120555   0.233   1.940   0.756
 3176TP3     H220556   0.367   2.010   0.766
 3177TP3      O20557   0.478   1.959   0.893
 3177TP3     H120558   0.566   1.925   0.869
 3177TP3     H220559   0.439   1.877   0.930
 3178TP3      O20560   0.381   3.667   9.481
 3178TP3     H120561   0.317   3.663   9.553
 3178TP3     H220562   0.410   3.576   9.474
 3179TP3      O20563   1.320   1.883   0.907
 3179TP3     H120564   1.327   1.835   0.991
 3179TP3     H220565   1.411   1.877   0.872
 3180TP3      O20566   1.633   3.498   0.765
 3180TP3     H120567   1.558   3.485   0.704
 3180TP3     H220568   1.624   3.592   0.785
 3181TP3      O20569   3.088   2.880  10.076
 3181TP3     H120570   3.081   2.978  10.077
 3181TP3     H220571   3.012   2.857  10.020
 3182TP3      O20572   2.970   2.799   0.109
 3182TP3     H120573   2.971   2.739   0.186
 3182TP3     H220574   2.929   2.745   0.040
 3183TP3      O20575   2.203   2.771   0.268
 3183TP3     H120576   2.212   2.701   0.335
 3183TP3     H220577   2.279   2.827   0.291
 3184TP3      O20578   3.333   3.096  10.260
 3184TP3     H120579   3.297   3.023  10.312
 3184TP3     H220580   3.341   3.165  10.327
 3185TP3      O20581   2.296   3.218   0.109
 3185TP3     H120582   2.268   3.128   0.084
 3185TP3     H220583   2.392   3.202   0.115
 3186TP3      O20584   1.960   2.567   9.982
 3186TP3     H120585   1.916   2.653   9.979
 3186TP3     H220586   1.905   2.514   9.922
 3187TP3      O20587   2.036   2.794  10.203
 3187TP3     H120588   2.066   2.710  10.243
 3187TP3     H220589   2.098   2.808  10.131
 3188TP3      O20590   3.050   3.617  10.283
 3188TP3     H120591   3.115   3.550  10.251
 3188TP3     H220592   3.023   3.575  10.366
 3189TP3      O20593   2.807   3.040   0.169
 3189TP3     H120594   2.839   2.981   0.099
 3189TP3     H220595   2.892   3.058   0.214
 3190TP3      O20596   3.663   2.209   0.229
 3190TP3     H120597   3.683   2.265   0.307
 3190TP3     H220598   3.727   2.247   0.166
 3191TP3      O20599   3.125   2.488   0.197
 3191TP3     H120600   3.144   2.393   0.200
 3191TP3     H220601   3.115   2.500   0.101
 3192TP3      O20602   2.433   2.297  10.227
 3192TP3     H120603   2.449   2.379  10.175
 3192TP3     H220604   2.396   2.239  10.158
 3193TP3      O20605   3.208   2.304  10.067
 3193TP3     H120606   3.271   2.274  10.136
 3193TP3     H220607   3.266   2.365  10.018
 3194TP3      O20608   2.095   2.541  10.301
 3194TP3     H120609   2.161   2.489  10.350
 3194TP3     H220610   2.111   2.507  10.211
 3195TP3      O20611   2.610   2.695  10.240
 3195TP3     H120612   2.681   2.637  10.272
 3195TP3     H220613   2.563   2.633  10.182
 3196TP3      O20614   3.708   2.347   0.460
 3196TP3     H120615   3.653   2.426   0.443
 3196TP3     H220616   3.711   2.347   0.557
 3197TP3      O20617   2.331   2.189   0.317
 3197TP3     H120618   2.302   2.246   0.243
 3197TP3     H220619   2.264   2.212   0.386
 3198TP3      O20620   3.048   3.133   9.986
 3198TP3     H120621   3.030   3.113   9.892
 3198TP3     H220622   3.023   3.228   9.992
 3199TP3      O20623   2.576   2.952   0.336
 3199TP3     H120624   2.509   3.018   0.365
 3199TP3     H220625   2.648   3.011   0.306
 3200TP3      O20626   3.395   2.242  10.265
 3200TP3     H120627   3.370   2.166  10.318
 3200TP3     H220628   3.463   2.283  10.321
 3201TP3      O20629   2.289   2.372   0.123
 3201TP3     H120630   2.350   2.443   0.154
 3201TP3     H220631   2.338   2.335   0.046
 3202TP3      O20632   2.428   3.157   0.418
 3202TP3     H120633   2.417   3.250   0.389
 3202TP3     H220634   2.340   3.145   0.462
 3203TP3      O20635   2.025   3.109   9.816
 3203TP3     H120636   2.010   3.147   9.726
 3203TP3     H220637   2.038   3.190   9.869
 3204TP3      O20638   3.390   3.283   0.177
 3204TP3     H120639   3.293   3.296   0.190
 3204TP3     H220640   3.417   3.374   0.153
 3205TP3      O20641   3.423   2.108   0.315
 3205TP3     H120642   3.352   2.173   0.301
 3205TP3     H220643   3.498   2.149   0.266
 3206TP3      O20644   2.714   1.923   0.060
 3206TP3     H120645   2.696   1.827   0.053
 3206TP3     H220646   2.628   1.955   0.095
 3207TP3      O20647   3.218   3.461  10.152
 3207TP3     H120648   3.256   3.387  10.100
 3207TP3     H220649   3.271   3.536  10.117
 3208TP3      O20650   3.340   3.252  10.006
 3208TP3     H120651   3.310   3.185   9.941
 3208TP3     H220652   3.342   3.201  10.088
 3209TP3      O20653   3.496   3.115   0.539
 3209TP3     H120654   3.513   3.045   0.472
 3209TP3     H220655   3.521   3.195   0.489
 3210TP3      O20656   2.948   2.801   9.824
 3210TP3     H120657   2.883   2.863   9.784
 3210TP3     H220658   3.023   2.811   9.764
 3211TP3      O20659   2.954   2.662   9.544
 3211TP3     H120660   3.029   2.665   9.606
 3211TP3     H220661   2.988   2.597   9.481
 3212TP3      O20662   3.690   2.747   0.337
 3212TP3     H120663   3.626   2.821   0.341
 3212TP3     H220664   3.743   2.774   0.260
 3213TP3      O20665   3.300   2.820   9.925
 3213TP3     H120666   3.226   2.845   9.985
 3213TP3     H220667   3.349   2.756   9.981
 3214TP3      O20668   3.290   2.639   0.522
 3214TP3     H120669   3.288   2.723   0.570
 3214TP3     H220670   3.229   2.664   0.450
 3215TP3      O20671   2.456   2.886  10.114
 3215TP3     H120672   2.427   2.847  10.028
 3215TP3     H220673   2.519   2.818  10.148
 3216TP3      O20674   2.587   3.222   0.065
 3216TP3     H120675   2.591   3.176  -0.020
 3216TP3     H220676   2.668   3.189   0.109
 3217TP3      O20677   2.486   2.761   0.168
 3217TP3     H120678   2.537   2.768   0.085
 3217TP3     H220679   2.529   2.829   0.225
 3218TP3      O20680   3.135   3.322   0.236
 3218TP3     H120681   3.106   3.387   0.302
 3218TP3     H220682   3.110   3.237   0.278
 3219TP3      O20683   2.582   3.207   0.636
 3219TP3     H120684   2.533   3.277   0.684
 3219TP3     H220685   2.518   3.186   0.563
 3220TP3      O20686   3.188   2.748   9.690
 3220TP3     H120687   3.240   2.768   9.771
 3220TP3     H220688   3.230   2.803   9.620
 3221TP3      O20689   2.283   2.822   0.542
 3221TP3     H120690   2.291   2.886   0.615
 3221TP3     H220691   2.187   2.824   0.531
 3222TP3      O20692   2.954   3.414  10.039
 3222TP3     H120693   2.995   3.448  10.119
 3222TP3     H220694   2.902   3.488  10.006
 3223TP3      O20695   2.414   3.402   0.711
 3223TP3     H120696   2.401   3.402   0.614
 3223TP3     H220697   2.321   3.392   0.739
 3224TP3      O20698   3.558   1.915   9.683
 3224TP3     H120699   3.461   1.922   9.698
 3224TP3     H220700   3.578   2.000   9.640
 3225TP3      O20701   2.350   2.786   9.873
 3225TP3     H120702   2.320   2.865   9.823
 3225TP3     H220703   2.287   2.718   9.847
 3226TP3      O20704   3.697   3.344   9.567
 3226TP3     H120705   3.688   3.437   9.541
 3226TP3     H220706   3.777   3.321   9.518
 3227TP3      O20707   1.964   3.033   0.454
 3227TP3     H120708   1.918   3.025   0.368
 3227TP3     H220709   1.975   2.938   0.475
 3228TP3      O20710   1.938   3.306   0.131
 3228TP3     H120711   2.033   3.294   0.126
 3228TP3     H220712   1.934   3.390   0.178
 3229TP3      O20713   3.762   3.377   0.696
 3229TP3     H120714   3.748   3.281   0.693
 3229TP3     H220715   3.675   3.403   0.734
 3230TP3      O20716   2.857   3.330   0.584
 3230TP3     H120717   2.861   3.414   0.636
 3230TP3     H220718   2.770   3.292   0.608
 3231TP3      O20719   2.903   3.704   9.871
 3231TP3     H120720   2.898   3.705   9.774
 3231TP3     H220721   2.907   3.799   9.895
 3232TP3      O20722   2.267   3.594  10.066
 3232TP3     H120723   2.283   3.551  10.153
 3232TP3     H220724   2.183   3.552  10.040
 3233TP3      O20725   3.189   3.636   9.579
 3233TP3     H120726   3.241   3.567   9.531
 3233TP3     H220727   3.212   3.611   9.670
 3234TP3      O20728   3.178   3.623   9.858
 3234TP3     H120729   3.082   3.629   9.874
 3234TP3     H220730   3.200   3.545   9.910
 3235TP3      O20731   3.476   2.522   0.743
 3235TP3     H120732   3.426   2.566   0.673
 3235TP3     H220733   3.472   2.429   0.714
 3236TP3      O20734   2.197   3.159   0.541
 3236TP3     H120735   2.210   3.138   0.636
 3236TP3     H220736   2.105   3.130   0.524
 3237TP3      O20737   2.462   2.015   0.136
 3237TP3     H120738   2.372   1.999   0.101
 3237TP3     H220739   2.445   2.094   0.191
 3238TP3      O20740   2.928   1.976   0.472
 3238TP3     H120741   2.965   1.934   0.552
 3238TP3     H220742   2.830   1.970   0.487
 3239TP3      O20743   3.251   2.367   0.565
 3239TP3     H120744   3.193   2.342   0.642
 3239TP3     H220745   3.232   2.461   0.546
 3240TP3      O20746   3.334   2.853   9.485
 3240TP3     H120747   3.331   2.845   9.389
 3240TP3     H220748   3.422   2.895   9.494
 3241TP3      O20749   2.903   2.251   9.550
 3241TP3     H120750   2.862   2.228   9.635
 3241TP3     H220751   2.896   2.167   9.502
 3242TP3      O20752   2.469   2.513   0.271
 3242TP3     H120753   2.395   2.515   0.333
 3242TP3     H220754   2.465   2.602   0.228
 3243TP3      O20755   2.468   2.515  10.068
 3243TP3     H120756   2.372   2.497  10.056
 3243TP3     H220757   2.502   2.492   9.979
 3244TP3      O20758   3.023   2.572   9.939
 3244TP3     H120759   2.983   2.656   9.906
 3244TP3     H220760   3.089   2.553   9.869
 3245TP3      O20761   2.921   2.594   0.768
 3245TP3     H120762   2.871   2.515   0.800
 3245TP3     H220763   3.004   2.588   0.818
 3246TP3      O20764   3.125   2.524  10.233
 3246TP3     H120765   3.093   2.581  10.161
 3246TP3     H220766   3.130   2.439  10.186
 3247TP3      O20767   2.230   2.529   0.426
 3247TP3     H120768   2.248   2.571   0.512
 3247TP3     H220769   2.190   2.445   0.454
 3248TP3      O20770   2.580   2.320   9.480
 3248TP3     H120771   2.527   2.248   9.521
 3248TP3     H220772   2.528   2.353   9.406
 3249TP3      O20773   1.900   2.239  10.154
 3249TP3     H120774   1.971   2.237  10.222
 3249TP3     H220775   1.944   2.209  10.073
 3250TP3      O20776   2.026   2.316   9.686
 3250TP3     H120777   2.080   2.370   9.624
 3250TP3     H220778   1.960   2.383   9.714
 3251TP3      O20779   3.039   2.677   0.363
 3251TP3     H120780   3.080   2.607   0.308
 3251TP3     H220781   2.989   2.627   0.430
 3252TP3      O20782   2.724   2.282  10.169
 3252TP3     H120783   2.630   2.277  10.194
 3252TP3     H220784   2.770   2.253  10.249
 3253TP3      O20785   2.201   2.431  10.057
 3253TP3     H120786   2.116   2.452  10.013
 3253TP3     H220787   2.228   2.347  10.014
 3254TP3      O20788   2.564   2.441   9.815
 3254TP3     H120789   2.660   2.451   9.831
 3254TP3     H220790   2.542   2.506   9.745
 3255TP3      O20791   3.163   2.205   0.173
 3255TP3     H120792   3.097   2.204   0.245
 3255TP3     H220793   3.113   2.171   0.098
 3256TP3      O20794   2.435   2.562   9.578
 3256TP3     H120795   2.380   2.522   9.509
 3256TP3     H220796   2.520   2.577   9.533
 3257TP3      O20797   3.479   3.765   0.809
 3257TP3     H120798   3.507   3.800   0.723
 3257TP3     H220799   3.551   3.796   0.864
 3258TP3      O20800   2.253   3.005   0.775
 3258TP3     H120801   2.320   3.044   0.830
 3258TP3     H220802   2.171   3.017   0.828
 3259TP3      O20803   2.847   2.552   0.038
 3259TP3     H120804   2.912   2.502  -0.012
 3259TP3     H220805   2.833   2.497   0.117
 3260TP3      O20806   2.348   2.166  10.006
 3260TP3     H120807   2.315   2.074  10.008
 3260TP3     H220808   2.426   2.157   9.950
 3261TP3      O20809   2.713   2.383   0.283
 3261TP3     H120810   2.632   2.438   0.289
 3261TP3     H220811   2.771   2.423   0.351
 3262TP3      O20812   2.770   3.003   9.773
 3262TP3     H120813   2.688   2.958   9.743
 3262TP3     H220814   2.746   3.023   9.866
 3263TP3      O20815   3.497   2.934   0.333
 3263TP3     H120816   3.549   2.983   0.266
 3263TP3     H220817   3.410   2.930   0.289
 3264TP3      O20818   3.164   2.286   9.587
 3264TP3     H120819   3.069   2.300   9.570
 3264TP3     H220820   3.193   2.373   9.619
 3265TP3      O20821   2.921   3.041   0.577
 3265TP3     H120822   2.887   2.992   0.653
 3265TP3     H220823   2.889   3.131   0.593
 3266TP3      O20824   3.228   2.487   9.752
 3266TP3     H120825   3.315   2.471   9.794
 3266TP3     H220826   3.242   2.569   9.702
 3267TP3      O20827   2.284   2.949   0.031
 3267TP3     H120828   2.348   2.938  -0.041
 3267TP3     H220829   2.291   2.866   0.081
 3268TP3      O20830   2.981   3.151   9.683
 3268TP3     H120831   2.941   3.237   9.708
 3268TP3     H220832   2.907   3.088   9.697
 3269TP3      O20833   1.983   2.782   0.557
 3269TP3     H120834   1.994   2.738   0.643
 3269TP3     H220835   1.918   2.727   0.511
 3270TP3      O20836   2.684   2.746   0.771
 3270TP3     H120837   2.648   2.706   0.690
 3270TP3     H220838   2.774   2.707   0.771
 3271TP3      O20839   3.156   3.278   0.576
 3271TP3     H120840   3.064   3.295   0.550
 3271TP3     H220841   3.150   3.310   0.669
 3272TP3      O20842   3.716   2.492   9.731
 3272TP3     H120843   3.660   2.464   9.656
 3272TP3     H220844   3.727   2.587   9.709
 3273TP3      O20845   3.717   3.080   0.688
 3273TP3     H120846   3.628   3.104   0.653
 3273TP3     H220847   3.770   3.074   0.604
 3274TP3      O20848   3.528   3.382   9.763
 3274TP3     H120849   3.509   3.294   9.799
 3274TP3     H220850   3.587   3.362   9.687
 3275TP3      O20851   3.271   2.861   0.160
 3275TP3     H120852   3.177   2.843   0.145
 3275TP3     H220853   3.314   2.787   0.113
 3276TP3      O20854   2.521   3.295  10.089
 3276TP3     H120855   2.570   3.377  10.068
 3276TP3     H220856   2.434   3.316  10.053
 3277TP3      O20857   2.093   2.779   9.537
 3277TP3     H120858   2.153   2.840   9.584
 3277TP3     H220859   2.006   2.801   9.575
 3278TP3      O20860   2.657   3.062  10.031
 3278TP3     H120861   2.623   3.152  10.045
 3278TP3     H220862   2.594   3.008  10.083
 3279TP3      O20863   2.708   3.480   0.370
 3279TP3     H120864   2.758   3.556   0.337
 3279TP3     H220865   2.771   3.442   0.433
 3280TP3      O20866   2.531   3.557   9.989
 3280TP3     H120867   2.435   3.572  10.007
 3280TP3     H220868   2.568   3.641  10.023
 3281TP3      O20869   3.052   3.074   0.324
 3281TP3     H120870   3.027   3.058   0.417
 3281TP3     H220871   3.118   3.005   0.306
 3282TP3      O20872   3.292   3.185   9.560
 3282TP3     H120873   3.315   3.137   9.642
 3282TP3     H220874   3.197   3.167   9.557
 3283TP3      O20875   3.344   3.535   0.571
 3283TP3     H120876   3.271   3.487   0.529
 3283TP3     H220877   3.360   3.605   0.504
 3284TP3      O20878   3.735   3.630   9.576
 3284TP3     H120879   3.805   3.693   9.552
 3284TP3     H220880   3.665   3.689   9.611
 3285TP3      O20881   2.149   2.261   0.514
 3285TP3     H120882   2.058   2.297   0.513
 3285TP3     H220883   2.137   2.177   0.561
 3286TP3      O20884   3.368   3.046   9.779
 3286TP3     H120885   3.345   2.963   9.826
 3286TP3     H220886   3.463   3.053   9.796
 3287TP3      O20887   2.132   3.441   0.327
 3287TP3     H120888   2.147   3.348   0.349
 3287TP3     H220889   2.117   3.472   0.420
 3288TP3      O20890   2.578   3.250   9.647
 3288TP3     H120891   2.619   3.193   9.714
 3288TP3     H220892   2.592   3.340   9.682
 3289TP3      O20893   2.237   2.971   9.690
 3289TP3     H120894   2.168   3.013   9.746
 3289TP3     H220895   2.287   3.050   9.661
 3290TP3      O20896   3.022   2.238   0.416
 3290TP3     H120897   3.096   2.246   0.478
 3290TP3     H220898   2.985   2.151   0.439
 3291TP3      O20899   3.091   2.193   9.840
 3291TP3     H120900   3.117   2.235   9.756
 3291TP3     H220901   3.152   2.238   9.901
 3292TP3      O20902   2.863   3.413   9.725
 3292TP3     H120903   2.777   3.460   9.720
 3292TP3     H220904   2.916   3.454   9.653
 3293TP3      O20905   2.817   2.369   9.916
 3293TP3     H120906   2.892   2.431   9.922
 3293TP3     H220907   2.788   2.355  10.009
 3294TP3      O20908   2.877   2.474   0.523
 3294TP3     H120909   2.884   2.527   0.605
 3294TP3     H220910   2.942   2.404   0.531
 3295TP3      O20911   2.901   2.073   9.997
 3295TP3     H120912   2.866   2.137  10.060
 3295TP3     H220913   2.974   2.127   9.958
 3296TP3      O20914   2.605   3.515   9.722
 3296TP3     H120915   2.622   3.599   9.673
 3296TP3     H220916   2.574   3.548   9.810
 3297TP3      O20917   2.465   2.183   9.683
 3297TP3     H120918   2.461   2.275   9.717
 3297TP3     H220919   2.556   2.161   9.711
 3298TP3      O20920   3.487   2.259   0.607
 3298TP3     H120921   3.396   2.294   0.592
 3298TP3     H220922   3.520   2.255   0.516
 3299TP3      O20923   3.354   2.638   0.003
 3299TP3     H120924   3.272   2.591  -0.021
 3299TP3     H220925   3.406   2.571   0.053
 3300TP3      O20926   2.292   3.233   9.577
 3300TP3     H120927   2.363   3.285   9.616
 3300TP3     H220928   2.344   3.180   9.513
 3301TP3      O20929   2.131   2.500   9.500
 3301TP3     H120930   2.133   2.597   9.511
 3301TP3     H220931   2.045   2.486   9.459
 3302TP3      O20932   3.459   3.569   0.169
 3302TP3     H120933   3.454   3.635   0.097
 3302TP3     H220934   3.556   3.570   0.187
 3303TP3      O20935   2.207   1.975   0.059
 3303TP3     H120936   2.193   1.976  -0.039
 3303TP3     H220937   2.169   1.887   0.081
 3304TP3      O20938   2.103   3.372   9.983
 3304TP3     H120939   2.014   3.407   9.976
 3304TP3     H220940   2.142   3.411   9.903
 3305TP3      O20941   2.015   3.651   0.820
 3305TP3     H120942   2.088   3.618   0.875
 3305TP3     H220943   1.995   3.568   0.768
 3306TP3      O20944   2.494   3.525   0.952
 3306TP3     H120945   2.570   3.477   0.988
 3306TP3     H220946   2.488   3.493   0.859
 3307TP3      O20947   2.952   3.474   9.485
 3307TP3     H120948   2.868   3.432   9.461
 3307TP3     H220949   3.006   3.443   9.411
 3308TP3      O20950   3.135   3.367   0.834
 3308TP3     H120951   3.105   3.278   0.863
 3308TP3     H220952   3.215   3.378   0.890
 3309TP3      O20953   3.326   3.464   9.444
 3309TP3     H120954   3.358   3.384   9.491
 3309TP3     H220955   3.404   3.475   9.385
 3310TP3      O20956   2.007   3.004   0.899
 3310TP3     H120957   2.021   2.914   0.865
 3310TP3     H220958   1.941   3.040   0.836
 3311TP3      O20959   2.455   3.054   9.433
 3311TP3     H120960   2.463   2.970   9.480
 3311TP3     H220961   2.504   3.034   9.351
 3312TP3      O20962   2.683   3.012   0.832
 3312TP3     H120963   2.653   3.047   0.745
 3312TP3     H220964   2.688   2.914   0.817
 3313TP3      O20965   3.251   2.994   0.575
 3313TP3     H120966   3.333   3.048   0.573
 3313TP3     H220967   3.186   3.065   0.576
 3314TP3      O20968   2.104   2.732   0.834
 3314TP3     H120969   2.153   2.648   0.827
 3314TP3     H220970   2.088   2.739   0.929
 3315TP3      O20971   2.574   2.854   9.661
 3315TP3     H120972   2.518   2.799   9.718
 3315TP3     H220973   2.607   2.787   9.596
 3316TP3      O20974   2.494   2.626   0.565
 3316TP3     H120975   2.437   2.700   0.591
 3316TP3     H220976   2.539   2.664   0.488
 3317TP3      O20977   2.681   2.677   9.474
 3317TP3     H120978   2.677   2.652   9.381
 3317TP3     H220979   2.778   2.679   9.492
 3318TP3      O20980   3.006   2.888   0.908
 3318TP3     H120981   3.099   2.878   0.884
 3318TP3     H220982   2.987   2.808   0.960
 3319TP3      O20983   3.588   2.925   9.422
 3319TP3     H120984   3.583   2.872   9.341
 3319TP3     H220985   3.617   3.012   9.393
 3320TP3      O20986   2.540   2.366   0.668
 3320TP3     H120987   2.551   2.297   0.600
 3320TP3     H220988   2.532   2.448   0.615
 3321TP3      O20989   2.579   2.201   0.429
 3321TP3     H120990   2.628   2.250   0.359
 3321TP3     H220991   2.488   2.198   0.392
 3322TP3      O20992   2.729   2.758   0.454
 3322TP3     H120993   2.806   2.741   0.399
 3322TP3     H220994   2.691   2.839   0.416
 3323TP3      O20995   3.168   2.525   0.944
 3323TP3     H120996   3.195   2.432   0.938
 3323TP3     H220997   3.253   2.571   0.953
 3324TP3      O20998   3.308   2.809   0.772
 3324TP3     H120999   3.281   2.878   0.707
 3324TP3     H221000   3.404   2.806   0.752
 3325TP3      O21001   2.385   2.491   0.866
 3325TP3     H121002   2.307   2.433   0.853
 3325TP3     H221003   2.447   2.455   0.800
 3326TP3      O21004   2.657   1.947   0.464
 3326TP3     H121005   2.634   2.043   0.456
 3326TP3     H221006   2.584   1.907   0.414
 3327TP3      O21007   2.784   2.380   0.836
 3327TP3     H121008   2.748   2.356   0.923
 3327TP3     H221009   2.708   2.359   0.778
 3328TP3      O21010   3.055   2.295   0.748
 3328TP3     H121011   2.959   2.302   0.756
 3328TP3     H221012   3.079   2.231   0.818
 3329TP3      O21013   3.210   2.155   0.928
 3329TP3     H121014   3.211   2.058   0.933
 3329TP3     H221015   3.193   2.185   1.019
 3330TP3      O21016   2.191   2.288   0.845
 3330TP3     H121017   2.209   2.211   0.788
 3330TP3     H221018   2.175   2.245   0.932
 3331TP3      O21019   2.678   1.892   0.735
 3331TP3     H121020   2.744   1.820   0.738
 3331TP3     H221021   2.664   1.897   0.639
 3332TP3      O21022   2.715   2.046   0.956
 3332TP3     H121023   2.694   1.995   0.874
 3332TP3     H221024   2.656   2.124   0.945
 3333TP3      O21025   2.658   3.745   9.582
 3333TP3     H121026   2.756   3.746   9.588
 3333TP3     H221027   2.644   3.801   9.506
 3334TP3      O21028   2.022   3.178   9.536
 3334TP3     H121029   2.114   3.208   9.550
 3334TP3     H221030   2.025   3.150   9.444
 3335TP3      O21031   1.894   3.731  10.025
 3335TP3     H121032   1.822   3.681   9.982
 3335TP3     H221033   1.921   3.669  10.095
 3336TP3      O21034   1.974   3.549  10.216
 3336TP3     H121035   1.939   3.462  10.239
 3336TP3     H221036   2.002   3.583  10.303
 3337TP3      O21037   3.732   3.631   0.189
 3337TP3     H121038   3.738   3.642   0.285
 3337TP3     H221039   3.803   3.690   0.159
 3338TP3      O21040   3.687   3.588   0.484
 3338TP3     H121041   3.641   3.511   0.444
 3338TP3     H221042   3.730   3.543   0.560
 3339TP3      O21043   3.532   3.158   0.956
 3339TP3     H121044   3.441   3.159   0.993
 3339TP3     H221045   3.568   3.241   0.991
 3340TP3      O21046   3.667   2.995   9.806
 3340TP3     H121047   3.752   3.036   9.832
 3340TP3     H221048   3.660   2.928   9.878
 3341TP3      O21049   3.697   2.803  10.000
 3341TP3     H121050   3.620   2.755  10.038
 3341TP3     H221051   3.756   2.812  10.077
 3342TP3      O21052   3.675   3.068   0.185
 3342TP3     H121053   3.753   3.027   0.143
 3342TP3     H221054   3.691   3.163   0.167
 3343TP3      O21055   3.532   3.361   0.409
 3343TP3     H121056   3.463   3.397   0.467
 3343TP3     H221057   3.478   3.324   0.335
 3344TP3      O21058   3.728   2.782   9.635
 3344TP3     H121059   3.663   2.814   9.570
 3344TP3     H221060   3.719   2.851   9.704
 3345TP3      O21061   3.514   2.504   9.497
 3345TP3     H121062   3.570   2.564   9.444
 3345TP3     H221063   3.550   2.420   9.464
 3346TP3      O21064   3.480   2.651  10.062
 3346TP3     H121065   3.467   2.555  10.051
 3346TP3     H221066   3.453   2.664  10.155
 3347TP3      O21067   1.983   2.858   0.149
 3347TP3     H121068   1.998   2.848   0.052
 3347TP3     H221069   2.072   2.836   0.183
 3348TP3      O21070   3.572   2.845   0.714
 3348TP3     H121071   3.632   2.768   0.725
 3348TP3     H221072   3.633   2.921   0.713
 3349TP3      O21073   3.719   2.629   0.776
 3349TP3     H121074   3.630   2.592   0.764
 3349TP3     H221075   3.775   2.548   0.772
 3350TP3      O21076   3.447   2.407   9.909
 3350TP3     H121077   3.474   2.313   9.918
 3350TP3     H221078   3.524   2.443   9.863
 3351TP3      O21079   3.514   2.462   0.135
 3351TP3     H121080   3.610   2.483   0.133
 3351TP3     H221081   3.497   2.475   0.229
 3352TP3      O21082   3.520   2.533   0.409
 3352TP3     H121083   3.431   2.560   0.439
 3352TP3     H221084   3.564   2.619   0.388
 3353TP3      O21085   1.948   2.387   0.770
 3353TP3     H121086   2.041   2.362   0.788
 3353TP3     H221087   1.900   2.304   0.788
 3354TP3      O21088   3.751   1.945   0.942
 3354TP3     H121089   3.785   1.877   0.881
 3354TP3     H221090   3.754   2.023   0.883
 3355TP3      O21091   3.516   2.137   9.907
 3355TP3     H121092   3.542   2.096   9.992
 3355TP3     H221093   3.459   2.069   9.865
 3356TP3      O21094   2.066   2.218   0.052
 3356TP3     H121095   2.110   2.133   0.073
 3356TP3     H221096   2.128   2.284   0.086
 3357TP3      O21097   1.893   2.519   0.152
 3357TP3     H121098   1.949   2.490   0.078
 3357TP3     H221099   1.944   2.597   0.178
 3358TP3      O21100   3.699   2.152   0.776
 3358TP3     H121101   3.606   2.182   0.773
 3358TP3     H221102   3.697   2.094   0.698
 3359TP3      O21103   3.699   2.145   9.568
 3359TP3     H121104   3.738   2.074   9.515
 3359TP3     H221105   3.770   2.210   9.567
 3360TP3      O21106   1.926   2.145   9.874
 3360TP3     H121107   1.831   2.161   9.863
 3360TP3     H221108   1.964   2.194   9.799
 3361TP3      O21109   3.401   3.637  10.072
 3361TP3     H121110   3.470   3.610  10.008
 3361TP3     H221111   3.452   3.688  10.138
 3362TP3      O21112   1.924   2.007   0.390
 3362TP3     H121113   1.857   1.987   0.458
 3362TP3     H221114   1.878   2.073   0.334
 3363TP3      O21115   2.155   3.306   0.817
 3363TP3     H121116   2.088   3.349   0.758
 3363TP3     H221117   2.113   3.318   0.902
 3364TP3      O21118   2.439   3.430   0.438
 3364TP3     H121119   2.404   3.517   0.413
 3364TP3     H221120   2.530   3.439   0.405
 3365TP3      O21121   2.868   3.572   0.721
 3365TP3     H121122   2.879   3.535   0.811
 3365TP3     H221123   2.959   3.603   0.700
 3366TP3      O21124   3.098   3.698   0.655
 3366TP3     H121125   3.174   3.644   0.630
 3366TP3     H221126   3.133   3.745   0.734
 3367TP3      O21127   3.603   1.959   0.570
 3367TP3     H121128   3.521   1.991   0.527
 3367TP3     H221129   3.617   1.874   0.521
 3368TP3      O21130   2.182   3.751   0.431
 3368TP3     H121131   2.107   3.801   0.394
 3368TP3     H221132   2.152   3.727   0.520
 3369TP3      O21133   2.430   3.714   0.336
 3369TP3     H121134   2.340   3.727   0.375
 3369TP3     H221135   2.423   3.773   0.259
 3370TP3      O21136   2.898   3.697   0.256
 3370TP3     H121137   2.853   3.754   0.192
 3370TP3     H221138   2.912   3.760   0.330
 3371TP3      O21139   3.121   3.572   0.368
 3371TP3     H121140   3.043   3.607   0.322
 3371TP3     H221141   3.178   3.650   0.358
 3372TP3      O21142   3.382   3.733   0.378
 3372TP3     H121143   3.386   3.829   0.356
 3372TP3     H221144   3.406   3.694   0.291
 3373TP3      O21145   2.132   3.618   0.119
 3373TP3     H121146   2.120   3.567   0.202
 3373TP3     H221147   2.214   3.576   0.086
 3374TP3      O21148   2.337   3.487  -0.009
 3374TP3     H121149   2.323   3.395   0.019
 3374TP3     H221150   2.424   3.506   0.033
 3375TP3      O21151   2.597   3.534   0.079
 3375TP3     H121152   2.611   3.441   0.056
 3375TP3     H221153   2.602   3.531   0.176
 3376TP3      O21154   2.939   2.101  10.307
 3376TP3     H121155   2.872   2.039  10.339
 3376TP3     H221156   2.995   2.044  10.252
 3377TP3      O21157   3.457   1.900  10.308
 3377TP3     H121158   3.514   1.964  10.259
 3377TP3     H221159   3.367   1.937  10.291
 3378TP3      O21160   3.618   2.034  10.138
 3378TP3     H121161   3.686   1.972  10.101
 3378TP3     H221162   3.673   2.114  10.152
 3379TP3      O21163   2.179   1.960  10.100
 3379TP3     H121164   2.100   1.948  10.044
 3379TP3     H221165   2.220   1.872  10.089
 3380TP3      O21166   2.046   1.937   9.657
 3380TP3     H121167   2.105   2.001   9.613
 3380TP3     H221168   2.002   1.991   9.724
 3381TP3      O21169   2.618   1.953  10.075
 3381TP3     H121170   2.708   1.987  10.059
 3381TP3     H221171   2.621   1.933  10.169
 3382TP3      O21172   3.200   1.958  10.232
 3382TP3     H121173   3.188   1.972  10.137
 3382TP3     H221174   3.160   1.868  10.245
 3383TP3      O21175   3.322   1.956   9.798
 3383TP3     H121176   3.248   2.016   9.784
 3383TP3     H221177   3.276   1.874   9.827
 3384TP3      O21178   2.046   3.534   9.773
 3384TP3     H121179   1.979   3.529   9.703
 3384TP3     H221180   2.051   3.630   9.780
 3385TP3      O21181   2.230   2.114   9.523
 3385TP3     H121182   2.292   2.066   9.468
 3385TP3     H221183   2.291   2.170   9.576
 3386TP3      O21184   2.738   2.155   9.757
 3386TP3     H121185   2.768   2.100   9.832
 3386TP3     H221186   2.751   2.243   9.800
 3387TP3      O21187   2.930   3.708   9.592
 3387TP3     H121188   3.028   3.696   9.592
 3387TP3     H221189   2.914   3.622   9.547
 3388TP3      O21190   3.594   3.615   9.879
 3388TP3     H121191   3.578   3.535   9.822
 3388TP3     H221192   3.585   3.686   9.813
 3389TP3      O21193   2.163   2.019   0.724
 3389TP3     H121194   2.119   1.937   0.756
 3389TP3     H221195   2.251   2.011   0.767
 3390TP3      O21196   2.362   1.959   0.895
 3390TP3     H121197   2.450   1.926   0.870
 3390TP3     H221198   2.325   1.877   0.933
 3391TP3      O21199   2.259   3.665   9.473
 3391TP3     H121200   2.201   3.665   9.550
 3391TP3     H221201   2.298   3.578   9.477
 3392TP3      O21202   3.205   1.883   0.907
 3392TP3     H121203   3.213   1.835   0.992
 3392TP3     H221204   3.297   1.877   0.872
 3393TP3      O21205   3.526   3.492   0.762
 3393TP3     H121206   3.447   3.480   0.705
 3393TP3     H221207   3.514   3.586   0.786
 3394TP3      O21208   4.971   2.880  10.078
 3394TP3     H121209   4.968   2.978  10.078
 3394TP3     H221210   4.897   2.858  10.019
 3395TP3      O21211   4.855   2.797   0.110
 3395TP3     H121212   4.861   2.740   0.189
 3395TP3     H221213   4.818   2.743   0.038
 3396TP3      O21214   4.097   2.767   0.262
 3396TP3     H121215   4.096   2.702   0.335
 3396TP3     H221216   4.163   2.830   0.295
 3397TP3      O21217   5.219   3.105  10.259
 3397TP3     H121218   5.189   3.027  10.306
 3397TP3     H221219   5.238   3.165  10.333
 3398TP3      O21220   4.182   3.219   0.110
 3398TP3     H121221   4.154   3.128   0.085
 3398TP3     H221222   4.278   3.202   0.116
 3399TP3      O21223   3.845   2.567   9.982
 3399TP3     H121224   3.801   2.653   9.978
 3399TP3     H221225   3.790   2.514   9.923
 3400TP3      O21226   3.922   2.794  10.204
 3400TP3     H121227   3.951   2.709  10.243
 3400TP3     H221228   3.983   2.807  10.131
 3401TP3      O21229   4.936   3.617  10.283
 3401TP3     H121230   5.000   3.548  10.251
 3401TP3     H221231   4.909   3.575  10.365
 3402TP3      O21232   4.693   3.041   0.166
 3402TP3     H121233   4.730   2.982   0.100
 3402TP3     H221234   4.773   3.061   0.218
 3403TP3      O21235   4.999   2.486   0.197
 3403TP3     H121236   5.032   2.395   0.205
 3403TP3     H221237   5.007   2.498   0.100
 3404TP3      O21238   4.323   2.299  10.227
 3404TP3     H121239   4.332   2.377  10.169
 3404TP3     H221240   4.283   2.237  10.162
 3405TP3      O21241   5.095   2.307  10.074
 3405TP3     H121242   5.163   2.270  10.134
 3405TP3     H221243   5.150   2.366  10.021
 3406TP3      O21244   3.982   2.543  10.301
 3406TP3     H121245   4.044   2.486  10.350
 3406TP3     H221246   3.994   2.508  10.211
 3407TP3      O21247   4.499   2.689  10.238
 3407TP3     H121248   4.587   2.650  10.233
 3407TP3     H221249   4.451   2.637  10.171
 3408TP3      O21250   4.220   2.193   0.317
 3408TP3     H121251   4.184   2.246   0.242
 3408TP3     H221252   4.151   2.209   0.385
 3409TP3      O21253   4.935   3.134   9.984
 3409TP3     H121254   4.915   3.113   9.891
 3409TP3     H221255   4.909   3.228   9.992
 3410TP3      O21256   4.446   2.963   0.307
 3410TP3     H121257   4.394   3.018   0.367
 3410TP3     H221258   4.532   3.005   0.318
 3411TP3      O21259   5.284   2.234  10.259
 3411TP3     H121260   5.248   2.168  10.317
 3411TP3     H221261   5.340   2.286  10.319
 3412TP3      O21262   4.175   2.372   0.123
 3412TP3     H121263   4.233   2.444   0.155
 3412TP3     H221264   4.223   2.334   0.045
 3413TP3      O21265   4.310   3.157   0.425
 3413TP3     H121266   4.303   3.248   0.390
 3413TP3     H221267   4.223   3.146   0.468
 3414TP3      O21268   3.911   3.109   9.816
 3414TP3     H121269   3.896   3.147   9.726
 3414TP3     H221270   3.923   3.190   9.869
 3415TP3      O21271   5.269   3.279   0.176
 3415TP3     H121272   5.172   3.294   0.190
 3415TP3     H221273   5.300   3.370   0.158
 3416TP3      O21274   5.321   2.115   0.311
 3416TP3     H121275   5.236   2.162   0.302
 3416TP3     H221276   5.376   2.165   0.249
 3417TP3      O21277   4.600   1.923   0.061
 3417TP3     H121278   4.583   1.828   0.054
 3417TP3     H221279   4.513   1.955   0.095
 3418TP3      O21280   5.104   3.461  10.151
 3418TP3     H121281   5.143   3.388  10.100
 3418TP3     H221282   5.157   3.537  10.118
 3419TP3      O21283   5.221   3.249   9.991
 3419TP3     H121284   5.187   3.175   9.938
 3419TP3     H221285   5.230   3.206  10.079
 3420TP3      O21286   5.376   3.112   0.550
 3420TP3     H121287   5.400   3.046   0.482
 3420TP3     H221288   5.402   3.194   0.503
 3421TP3      O21289   4.832   2.800   9.824
 3421TP3     H121290   4.768   2.864   9.785
 3421TP3     H221291   4.908   2.811   9.763
 3422TP3      O21292   4.839   2.658   9.541
 3422TP3     H121293   4.912   2.665   9.605
 3422TP3     H221294   4.877   2.594   9.481
 3423TP3      O21295   5.172   2.815   9.917
 3423TP3     H121296   5.106   2.845   9.983
 3423TP3     H221297   5.232   2.764   9.974
 3424TP3      O21298   5.171   2.645   0.518
 3424TP3     H121299   5.163   2.725   0.571
 3424TP3     H221300   5.107   2.669   0.448
 3425TP3      O21301   4.342   2.888  10.114
 3425TP3     H121302   4.308   2.851  10.029
 3425TP3     H221303   4.405   2.820  10.145
 3426TP3      O21304   4.475   3.223   0.066
 3426TP3     H121305   4.477   3.176  -0.019
 3426TP3     H221306   4.552   3.185   0.113
 3427TP3      O21307   4.381   2.757   0.161
 3427TP3     H121308   4.420   2.797   0.081
 3427TP3     H221309   4.407   2.828   0.227
 3428TP3      O21310   5.013   3.322   0.236
 3428TP3     H121311   4.990   3.384   0.306
 3428TP3     H221312   4.992   3.235   0.278
 3429TP3      O21313   4.471   3.218   0.639
 3429TP3     H121314   4.417   3.284   0.686
 3429TP3     H221315   4.411   3.184   0.568
 3430TP3      O21316   5.078   2.743   9.685
 3430TP3     H121317   5.122   2.766   9.770
 3430TP3     H221318   5.116   2.805   9.619
 3431TP3      O21319   4.165   2.820   0.543
 3431TP3     H121320   4.181   2.885   0.613
 3431TP3     H221321   4.069   2.828   0.533
 3432TP3      O21322   4.840   3.414  10.036
 3432TP3     H121323   4.880   3.448  10.117
 3432TP3     H221324   4.788   3.489  10.004
 3433TP3      O21325   4.292   3.414   0.708
 3433TP3     H121326   4.286   3.400   0.612
 3433TP3     H221327   4.202   3.392   0.738
 3434TP3      O21328   5.438   1.911   9.684
 3434TP3     H121329   5.341   1.920   9.695
 3434TP3     H221330   5.461   1.988   9.632
 3435TP3      O21331   4.235   2.787   9.874
 3435TP3     H121332   4.205   2.865   9.823
 3435TP3     H221333   4.173   2.718   9.847
 3436TP3      O21334   3.847   3.034   0.455
 3436TP3     H121335   3.804   3.025   0.368
 3436TP3     H221336   3.860   2.939   0.475
 3437TP3      O21337   3.823   3.306   0.129
 3437TP3     H121338   3.918   3.294   0.127
 3437TP3     H221339   3.816   3.390   0.177
 3438TP3      O21340   4.744   3.336   0.579
 3438TP3     H121341   4.744   3.415   0.637
 3438TP3     H221342   4.662   3.291   0.607
 3439TP3      O21343   4.789   3.704   9.871
 3439TP3     H121344   4.781   3.706   9.775
 3439TP3     H221345   4.792   3.799   9.895
 3440TP3      O21346   4.153   3.594  10.066
 3440TP3     H121347   4.169   3.551  10.153
 3440TP3     H221348   4.069   3.552  10.040
 3441TP3      O21349   5.081   3.629   9.575
 3441TP3     H121350   5.132   3.556   9.532
 3441TP3     H221351   5.096   3.608   9.669
 3442TP3      O21352   5.060   3.621   9.856
 3442TP3     H121353   4.964   3.627   9.872
 3442TP3     H221354   5.083   3.545   9.911
 3443TP3      O21355   5.346   2.534   0.740
 3443TP3     H121356   5.301   2.562   0.659
 3443TP3     H221357   5.374   2.443   0.716
 3444TP3      O21358   4.077   3.165   0.547
 3444TP3     H121359   4.099   3.129   0.635
 3444TP3     H221360   3.991   3.125   0.526
 3445TP3      O21361   4.349   2.018   0.133
 3445TP3     H121362   4.258   1.999   0.100
 3445TP3     H221363   4.328   2.090   0.195
 3446TP3      O21364   4.813   1.975   0.471
 3446TP3     H121365   4.850   1.934   0.552
 3446TP3     H221366   4.716   1.970   0.487
 3447TP3      O21367   5.139   2.365   0.555
 3447TP3     H121368   5.090   2.342   0.637
 3447TP3     H221369   5.124   2.460   0.545
 3448TP3      O21370   5.221   2.853   9.480
 3448TP3     H121371   5.221   2.843   9.384
 3448TP3     H221372   5.307   2.898   9.489
 3449TP3      O21373   4.791   2.250   9.552
 3449TP3     H121374   4.746   2.228   9.635
 3449TP3     H221375   4.780   2.169   9.500
 3450TP3      O21376   4.349   2.517   0.269
 3450TP3     H121377   4.280   2.504   0.338
 3450TP3     H221378   4.332   2.612   0.250
 3451TP3      O21379   4.354   2.517  10.068
 3451TP3     H121380   4.259   2.498  10.055
 3451TP3     H221381   4.387   2.493   9.979
 3452TP3      O21382   4.908   2.573   9.940
 3452TP3     H121383   4.868   2.656   9.907
 3452TP3     H221384   4.974   2.553   9.871
 3453TP3      O21385   4.812   2.592   0.767
 3453TP3     H121386   4.758   2.517   0.800
 3453TP3     H221387   4.892   2.586   0.821
 3454TP3      O21388   5.000   2.523  10.235
 3454TP3     H121389   4.982   2.581  10.158
 3454TP3     H221390   5.017   2.439  10.187
 3455TP3      O21391   4.116   2.527   0.426
 3455TP3     H121392   4.133   2.571   0.511
 3455TP3     H221393   4.072   2.445   0.455
 3456TP3      O21394   4.467   2.318   9.478
 3456TP3     H121395   4.415   2.248   9.523
 3456TP3     H221396   4.411   2.352   9.408
 3457TP3      O21397   3.786   2.239  10.154
 3457TP3     H121398   3.857   2.236  10.222
 3457TP3     H221399   3.830   2.208  10.073
 3458TP3      O21400   3.913   2.316   9.684
 3458TP3     H121401   3.966   2.371   9.623
 3458TP3     H221402   3.847   2.382   9.714
 3459TP3      O21403   4.920   2.679   0.359
 3459TP3     H121404   4.966   2.609   0.309
 3459TP3     H221405   4.879   2.629   0.431
 3460TP3      O21406   4.610   2.292  10.174
 3460TP3     H121407   4.517   2.270  10.191
 3460TP3     H221408   4.657   2.248  10.246
 3461TP3      O21409   4.090   2.433  10.059
 3461TP3     H121410   4.005   2.453  10.015
 3461TP3     H221411   4.116   2.348  10.017
 3462TP3      O21412   4.449   2.440   9.814
 3462TP3     H121413   4.544   2.450   9.831
 3462TP3     H221414   4.427   2.506   9.745
 3463TP3      O21415   5.047   2.198   0.177
 3463TP3     H121416   4.978   2.204   0.246
 3463TP3     H221417   4.993   2.173   0.100
 3464TP3      O21418   4.318   2.562   9.582
 3464TP3     H121419   4.264   2.522   9.512
 3464TP3     H221420   4.403   2.577   9.537
 3465TP3      O21421   5.370   3.767   0.825
 3465TP3     H121422   5.410   3.801   0.740
 3465TP3     H221423   5.447   3.787   0.881
 3466TP3      O21424   4.130   3.017   0.767
 3466TP3     H121425   4.208   3.034   0.822
 3466TP3     H221426   4.058   3.014   0.833
 3467TP3      O21427   4.723   2.540   0.038
 3467TP3     H121428   4.800   2.509  -0.012
 3467TP3     H221429   4.738   2.494   0.122
 3468TP3      O21430   4.233   2.166  10.007
 3468TP3     H121431   4.201   2.074  10.008
 3468TP3     H221432   4.311   2.157   9.950
 3469TP3      O21433   4.598   2.399   0.278
 3469TP3     H121434   4.514   2.434   0.313
 3469TP3     H221435   4.659   2.421   0.352
 3470TP3      O21436   4.658   3.001   9.775
 3470TP3     H121437   4.575   2.959   9.742
 3470TP3     H221438   4.631   3.024   9.867
 3471TP3      O21439   5.385   2.933   0.331
 3471TP3     H121440   5.436   2.968   0.257
 3471TP3     H221441   5.296   2.925   0.290
 3472TP3      O21442   5.052   2.288   9.589
 3472TP3     H121443   4.956   2.295   9.570
 3472TP3     H221444   5.071   2.378   9.620
 3473TP3      O21445   4.873   3.063   0.596
 3473TP3     H121446   4.812   2.989   0.617
 3473TP3     H221447   4.802   3.127   0.578
 3474TP3      O21448   5.111   2.487   9.752
 3474TP3     H121449   5.196   2.471   9.799
 3474TP3     H221450   5.126   2.571   9.705
 3475TP3      O21451   4.171   2.952   0.033
 3475TP3     H121452   4.231   2.940  -0.043
 3475TP3     H221453   4.172   2.866   0.079
 3476TP3      O21454   4.868   3.152   9.685
 3476TP3     H121455   4.826   3.238   9.708
 3476TP3     H221456   4.794   3.088   9.698
 3477TP3      O21457   3.868   2.786   0.557
 3477TP3     H121458   3.880   2.741   0.643
 3477TP3     H221459   3.804   2.729   0.510
 3478TP3      O21460   4.557   2.704   0.792
 3478TP3     H121461   4.531   2.722   0.700
 3478TP3     H221462   4.653   2.712   0.779
 3479TP3      O21463   5.040   3.299   0.570
 3479TP3     H121464   4.945   3.285   0.552
 3479TP3     H221465   5.035   3.304   0.667
 3480TP3      O21466   5.437   3.369   9.754
 3480TP3     H121467   5.394   3.292   9.792
 3480TP3     H221468   5.459   3.346   9.663
 3481TP3      O21469   5.152   2.855   0.172
 3481TP3     H121470   5.059   2.841   0.147
 3481TP3     H221471   5.195   2.789   0.115
 3482TP3      O21472   4.408   3.294  10.090
 3482TP3     H121473   4.455   3.376  10.068
 3482TP3     H221474   4.320   3.315  10.054
 3483TP3      O21475   3.979   2.780   9.536
 3483TP3     H121476   4.039   2.840   9.584
 3483TP3     H221477   3.892   2.801   9.574
 3484TP3      O21478   4.542   3.062  10.029
 3484TP3     H121479   4.510   3.153  10.049
 3484TP3     H221480   4.478   3.010  10.081
 3485TP3      O21481   4.591   3.484   0.366
 3485TP3     H121482   4.643   3.560   0.336
 3485TP3     H221483   4.656   3.441   0.425
 3486TP3      O21484   4.416   3.557   9.989
 3486TP3     H121485   4.321   3.571  10.007
 3486TP3     H221486   4.453   3.641  10.022
 3487TP3      O21487   4.941   3.075   0.318
 3487TP3     H121488   4.919   3.069   0.413
 3487TP3     H221489   5.003   3.001   0.307
 3488TP3      O21490   5.180   3.185   9.557
 3488TP3     H121491   5.202   3.140   9.641
 3488TP3     H221492   5.084   3.168   9.554
 3489TP3      O21493   5.225   3.535   0.565
 3489TP3     H121494   5.155   3.477   0.526
 3489TP3     H221495   5.250   3.586   0.485
 3490TP3      O21496   4.034   2.260   0.512
 3490TP3     H121497   3.944   2.297   0.513
 3490TP3     H221498   4.023   2.177   0.561
 3491TP3      O21499   5.258   3.043   9.777
 3491TP3     H121500   5.227   2.963   9.826
 3491TP3     H221501   5.351   3.048   9.804
 3492TP3      O21502   3.993   3.436   0.353
 3492TP3     H121503   4.032   3.347   0.355
 3492TP3     H221504   4.019   3.469   0.440
 3493TP3      O21505   4.463   3.250   9.647
 3493TP3     H121506   4.504   3.193   9.715
 3493TP3     H221507   4.477   3.340   9.681
 3494TP3      O21508   4.123   2.971   9.690
 3494TP3     H121509   4.053   3.013   9.746
 3494TP3     H221510   4.173   3.050   9.661
 3495TP3      O21511   4.903   2.238   0.418
 3495TP3     H121512   4.979   2.247   0.477
 3495TP3     H221513   4.869   2.149   0.441
 3496TP3      O21514   4.981   2.194   9.843
 3496TP3     H121515   5.004   2.235   9.757
 3496TP3     H221516   5.044   2.238   9.901
 3497TP3      O21517   4.748   3.413   9.725
 3497TP3     H121518   4.663   3.460   9.721
 3497TP3     H221519   4.801   3.454   9.654
 3498TP3      O21520   4.701   2.370   9.917
 3498TP3     H121521   4.778   2.430   9.921
 3498TP3     H221522   4.676   2.354  10.010
 3499TP3      O21523   4.761   2.479   0.518
 3499TP3     H121524   4.765   2.529   0.603
 3499TP3     H221525   4.825   2.407   0.531
 3500TP3      O21526   4.782   2.072   9.996
 3500TP3     H121527   4.752   2.134  10.064
 3500TP3     H221528   4.857   2.125   9.958
 3501TP3      O21529   4.487   3.515   9.721
 3501TP3     H121530   4.507   3.598   9.673
 3501TP3     H221531   4.459   3.548   9.810
 3502TP3      O21532   4.352   2.184   9.682
 3502TP3     H121533   4.347   2.275   9.717
 3502TP3     H221534   4.443   2.161   9.711
 3503TP3      O21535   5.381   2.259   0.600
 3503TP3     H121536   5.288   2.289   0.590
 3503TP3     H221537   5.411   2.266   0.509
 3504TP3      O21538   5.235   2.642   0.003
 3504TP3     H121539   5.155   2.596  -0.026
 3504TP3     H221540   5.277   2.571   0.056
 3505TP3      O21541   4.177   3.233   9.576
 3505TP3     H121542   4.248   3.286   9.616
 3505TP3     H221543   4.230   3.180   9.513
 3506TP3      O21544   4.016   2.500   9.500
 3506TP3     H121545   4.019   2.597   9.511
 3506TP3     H221546   3.930   2.486   9.460
 3507TP3      O21547   5.347   3.568   0.179
 3507TP3     H121548   5.331   3.627   0.102
 3507TP3     H221549   5.443   3.568   0.185
 3508TP3      O21550   4.093   1.975   0.059
 3508TP3     H121551   4.079   1.976  -0.038
 3508TP3     H221552   4.055   1.887   0.081
 3509TP3      O21553   3.989   3.371   9.983
 3509TP3     H121554   3.900   3.407   9.978
 3509TP3     H221555   4.027   3.411   9.903
 3510TP3      O21556   3.902   3.634   0.793
 3510TP3     H121557   3.966   3.619   0.866
 3510TP3     H221558   3.870   3.543   0.777
 3511TP3      O21559   4.379   3.527   0.954
 3511TP3     H121560   4.455   3.477   0.989
 3511TP3     H221561   4.375   3.497   0.861
 3512TP3      O21562   4.839   3.474   9.483
 3512TP3     H121563   4.754   3.431   9.461
 3512TP3     H221564   4.892   3.442   9.410
 3513TP3      O21565   5.023   3.369   0.834
 3513TP3     H121566   4.990   3.278   0.857
 3513TP3     H221567   5.101   3.374   0.894
 3514TP3      O21568   5.215   3.462   9.425
 3514TP3     H121569   5.245   3.388   9.481
 3514TP3     H221570   5.303   3.489   9.393
 3515TP3      O21571   3.893   3.009   0.897
 3515TP3     H121572   3.910   2.918   0.868
 3515TP3     H221573   3.824   3.036   0.834
 3516TP3      O21574   4.342   3.054   9.433
 3516TP3     H121575   4.348   2.970   9.479
 3516TP3     H221576   4.389   3.032   9.351
 3517TP3      O21577   4.562   3.022   0.871
 3517TP3     H121578   4.547   3.056   0.779
 3517TP3     H221579   4.577   2.929   0.844
 3518TP3      O21580   5.139   2.990   0.565
 3518TP3     H121581   5.217   3.051   0.573
 3518TP3     H221582   5.065   3.053   0.575
 3519TP3      O21583   3.996   2.735   0.836
 3519TP3     H121584   4.039   2.649   0.829
 3519TP3     H221585   3.973   2.738   0.931
 3520TP3      O21586   4.460   2.854   9.658
 3520TP3     H121587   4.403   2.800   9.715
 3520TP3     H221588   4.492   2.786   9.595
 3521TP3      O21589   4.379   2.627   0.558
 3521TP3     H121590   4.327   2.699   0.595
 3521TP3     H221591   4.432   2.674   0.491
 3522TP3      O21592   4.567   2.678   9.473
 3522TP3     H121593   4.564   2.653   9.380
 3522TP3     H221594   4.664   2.679   9.494
 3523TP3      O21595   4.894   2.888   0.914
 3523TP3     H121596   4.986   2.876   0.892
 3523TP3     H221597   4.874   2.805   0.961
 3524TP3      O21598   5.490   2.897   9.418
 3524TP3     H121599   5.482   2.859   9.330
 3524TP3     H221600   5.513   2.989   9.402
 3525TP3      O21601   4.425   2.364   0.669
 3525TP3     H121602   4.436   2.296   0.600
 3525TP3     H221603   4.419   2.448   0.620
 3526TP3      O21604   4.466   2.209   0.431
 3526TP3     H121605   4.514   2.247   0.355
 3526TP3     H221606   4.375   2.200   0.395
 3527TP3      O21607   4.604   2.731   0.383
 3527TP3     H121608   4.699   2.732   0.402
 3527TP3     H221609   4.584   2.814   0.435
 3528TP3      O21610   5.053   2.525   0.943
 3528TP3     H121611   5.084   2.433   0.934
 3528TP3     H221612   5.136   2.574   0.946
 3529TP3      O21613   5.183   2.811   0.771
 3529TP3     H121614   5.160   2.882   0.707
 3529TP3     H221615   5.278   2.801   0.750
 3530TP3      O21616   4.270   2.493   0.863
 3530TP3     H121617   4.195   2.431   0.849
 3530TP3     H221618   4.335   2.458   0.799
 3531TP3      O21619   4.543   1.947   0.463
 3531TP3     H121620   4.520   2.043   0.457
 3531TP3     H221621   4.469   1.907   0.413
 3532TP3      O21622   4.670   2.380   0.834
 3532TP3     H121623   4.633   2.356   0.921
 3532TP3     H221624   4.594   2.362   0.776
 3533TP3      O21625   4.944   2.292   0.746
 3533TP3     H121626   4.848   2.300   0.757
 3533TP3     H221627   4.966   2.229   0.818
 3534TP3      O21628   5.101   2.152   0.932
 3534TP3     H121629   5.091   2.055   0.935
 3534TP3     H221630   5.074   2.184   1.021
 3535TP3      O21631   4.078   2.288   0.845
 3535TP3     H121632   4.095   2.211   0.787
 3535TP3     H221633   4.061   2.245   0.932
 3536TP3      O21634   4.563   1.892   0.736
 3536TP3     H121635   4.629   1.820   0.739
 3536TP3     H221636   4.550   1.898   0.639
 3537TP3      O21637   4.599   2.047   0.956
 3537TP3     H121638   4.580   1.995   0.874
 3537TP3     H221639   4.543   2.125   0.944
 3538TP3      O21640   4.543   3.745   9.581
 3538TP3     H121641   4.640   3.747   9.590
 3538TP3     H221642   4.529   3.802   9.505
 3539TP3      O21643   3.909   3.177   9.537
 3539TP3     H121644   4.001   3.209   9.549
 3539TP3     H221645   3.912   3.150   9.444
 3540TP3      O21646   3.779   3.732  10.026
 3540TP3     H121647   3.706   3.683   9.982
 3540TP3     H221648   3.806   3.669  10.095
 3541TP3      O21649   3.863   3.549  10.217
 3541TP3     H121650   3.824   3.463  10.240
 3541TP3     H221651   3.891   3.583  10.305
 3542TP3      O21652   5.415   3.149   0.972
 3542TP3     H121653   5.320   3.156   0.994
 3542TP3     H221654   5.446   3.240   0.983
 3543TP3      O21655   5.412   3.349   0.411
 3543TP3     H121656   5.344   3.394   0.463
 3543TP3     H221657   5.365   3.315   0.331
 3544TP3      O21658   5.457   2.497   9.494
 3544TP3     H121659   5.455   2.569   9.429
 3544TP3     H221660   5.434   2.420   9.443
 3545TP3      O21661   5.354   2.653  10.059
 3545TP3     H121662   5.355   2.556  10.059
 3545TP3     H221663   5.337   2.672  10.153
 3546TP3      O21664   3.870   2.858   0.151
 3546TP3     H121665   3.882   2.848   0.055
 3546TP3     H221666   3.960   2.836   0.182
 3547TP3      O21667   5.453   2.845   0.733
 3547TP3     H121668   5.508   2.767   0.724
 3547TP3     H221669   5.500   2.914   0.685
 3548TP3      O21670   5.329   2.406   9.905
 3548TP3     H121671   5.354   2.314   9.930
 3548TP3     H221672   5.407   2.440   9.860
 3549TP3      O21673   5.352   2.444   0.139
 3549TP3     H121674   5.446   2.462   0.118
 3549TP3     H221675   5.365   2.468   0.233
 3550TP3      O21676   5.404   2.534   0.411
 3550TP3     H121677   5.316   2.562   0.440
 3550TP3     H221678   5.447   2.617   0.388
 3551TP3      O21679   3.833   2.387   0.770
 3551TP3     H121680   3.926   2.363   0.788
 3551TP3     H221681   3.785   2.304   0.788
 3552TP3      O21682   5.348   2.135   9.924
 3552TP3     H121683   5.404   2.092   9.991
 3552TP3     H221684   5.320   2.059   9.869
 3553TP3      O21685   3.951   2.217   0.051
 3553TP3     H121686   3.995   2.133   0.073
 3553TP3     H221687   4.010   2.283   0.087
 3554TP3      O21688   3.779   2.520   0.152
 3554TP3     H121689   3.834   2.490   0.078
 3554TP3     H221690   3.831   2.598   0.178
 3555TP3      O21691   3.812   2.145   9.874
 3555TP3     H121692   3.717   2.160   9.864
 3555TP3     H221693   3.850   2.194   9.799
 3556TP3      O21694   5.286   3.641  10.077
 3556TP3     H121695   5.348   3.607  10.009
 3556TP3     H221696   5.345   3.685  10.140
 3557TP3      O21697   3.809   2.007   0.390
 3557TP3     H121698   3.742   1.986   0.458
 3557TP3     H221699   3.763   2.072   0.334
 3558TP3      O21700   4.038   3.324   0.803
 3558TP3     H121701   3.955   3.349   0.760
 3558TP3     H221702   4.011   3.315   0.894
 3559TP3      O21703   4.322   3.431   0.432
 3559TP3     H121704   4.299   3.523   0.410
 3559TP3     H221705   4.416   3.433   0.405
 3560TP3      O21706   4.753   3.571   0.723
 3560TP3     H121707   4.761   3.534   0.813
 3560TP3     H221708   4.843   3.599   0.701
 3561TP3      O21709   4.982   3.710   0.647
 3561TP3     H121710   5.020   3.621   0.633
 3561TP3     H221711   4.999   3.736   0.740
 3562TP3      O21712   5.463   1.945   0.589
 3562TP3     H121713   5.385   1.981   0.543
 3562TP3     H221714   5.494   1.874   0.531
 3563TP3      O21715   4.066   3.752   0.428
 3563TP3     H121716   3.992   3.804   0.392
 3563TP3     H221717   4.040   3.738   0.520
 3564TP3      O21718   4.312   3.711   0.336
 3564TP3     H121719   4.223   3.729   0.375
 3564TP3     H221720   4.308   3.772   0.260
 3565TP3      O21721   4.785   3.699   0.259
 3565TP3     H121722   4.740   3.754   0.193
 3565TP3     H221723   4.795   3.764   0.332
 3566TP3      O21724   5.009   3.581   0.373
 3566TP3     H121725   4.929   3.604   0.321
 3566TP3     H221726   5.061   3.660   0.352
 3567TP3      O21727   5.256   3.739   0.384
 3567TP3     H121728   5.261   3.832   0.353
 3567TP3     H221729   5.289   3.693   0.303
 3568TP3      O21730   4.017   3.617   0.126
 3568TP3     H121731   4.005   3.568   0.210
 3568TP3     H221732   4.097   3.575   0.088
 3569TP3      O21733   4.222   3.486  -0.008
 3569TP3     H121734   4.210   3.393   0.019
 3569TP3     H221735   4.308   3.507   0.034
 3570TP3      O21736   4.480   3.534   0.080
 3570TP3     H121737   4.495   3.441   0.055
 3570TP3     H221738   4.486   3.529   0.176
 3571TP3      O21739   4.820   2.104  10.305
 3571TP3     H121740   4.758   2.037  10.340
 3571TP3     H221741   4.880   2.048  10.253
 3572TP3      O21742   5.332   1.904  10.329
 3572TP3     H121743   5.392   1.962  10.276
 3572TP3     H221744   5.245   1.936  10.295
 3573TP3      O21745  -0.022   2.033  10.185
 3573TP3     H121746   0.027   1.975  10.123
 3573TP3     H221747   0.016   2.121  10.172
 3574TP3      O21748   4.064   1.961  10.099
 3574TP3     H121749   3.985   1.949  10.043
 3574TP3     H221750   4.105   1.873  10.089
 3575TP3      O21751   3.933   1.937   9.656
 3575TP3     H121752   3.991   2.003   9.612
 3575TP3     H221753   3.888   1.991   9.724
 3576TP3      O21754   4.502   1.954  10.075
 3576TP3     H121755   4.593   1.986  10.059
 3576TP3     H221756   4.505   1.933  10.168
 3577TP3      O21757   5.080   1.956  10.234
 3577TP3     H121758   5.078   1.970  10.139
 3577TP3     H221759   5.042   1.866  10.246
 3578TP3      O21760   5.202   1.952   9.792
 3578TP3     H121761   5.128   2.015   9.786
 3578TP3     H221762   5.159   1.870   9.825
 3579TP3      O21763   3.931   3.534   9.774
 3579TP3     H121764   3.864   3.529   9.704
 3579TP3     H221765   3.937   3.630   9.781
 3580TP3      O21766   4.116   2.115   9.522
 3580TP3     H121767   4.178   2.065   9.468
 3580TP3     H221768   4.176   2.170   9.576
 3581TP3      O21769   4.624   2.154   9.757
 3581TP3     H121770   4.654   2.100   9.832
 3581TP3     H221771   4.637   2.243   9.800
 3582TP3      O21772   4.819   3.708   9.592
 3582TP3     H121773   4.917   3.696   9.590
 3582TP3     H221774   4.800   3.622   9.548
 3583TP3      O21775   5.439   3.609   9.859
 3583TP3     H121776   5.452   3.526   9.808
 3583TP3     H221777   5.469   3.676   9.792
 3584TP3      O21778   4.049   2.019   0.723
 3584TP3     H121779   4.005   1.938   0.756
 3584TP3     H221780   4.137   2.011   0.767
 3585TP3      O21781   4.247   1.959   0.895
 3585TP3     H121782   4.336   1.926   0.870
 3585TP3     H221783   4.210   1.877   0.933
 3586TP3      O21784   4.143   3.665   9.471
 3586TP3     H121785   4.085   3.664   9.549
 3586TP3     H221786   4.184   3.578   9.478
 3587TP3      O21787   5.087   1.883   0.906
 3587TP3     H121788   5.096   1.838   0.993
 3587TP3     H221789   5.179   1.877   0.873
 3588TP3      O21790   5.407   3.485   0.775
 3588TP3     H121791   5.339   3.466   0.708
 3588TP3     H221792   5.409   3.582   0.783
 3589TP3      O21793   1.202   4.765  10.076
 3589TP3     H121794   1.195   4.863  10.078
 3589TP3     H221795   1.127   4.742  10.020
 3590TP3      O21796   1.087   4.683   0.111
 3590TP3     H121797   1.086   4.623   0.187
 3590TP3     H221798   1.040   4.634   0.041
 3591TP3      O21799   0.317   4.658   0.270
 3591TP3     H121800   0.325   4.584   0.334
 3591TP3     H221801   0.395   4.711   0.292
 3592TP3      O21802   1.446   4.984  10.260
 3592TP3     H121803   1.411   4.912  10.312
 3592TP3     H221804   1.456   5.052  10.329
 3593TP3      O21805   0.407   5.101   0.109
 3593TP3     H121806   0.380   5.010   0.084
 3593TP3     H221807   0.502   5.085   0.115
 3594TP3      O21808   0.088   4.467   9.961
 3594TP3     H121809   0.030   4.540   9.987
 3594TP3     H221810   0.026   4.397   9.946
 3595TP3      O21811   0.152   4.676  10.205
 3595TP3     H121812   0.183   4.592  10.243
 3595TP3     H221813   0.217   4.695  10.137
 3596TP3      O21814   1.135   5.454  10.295
 3596TP3     H121815   1.213   5.405  10.262
 3596TP3     H221816   1.148   5.451  10.391
 3597TP3      O21817   0.922   4.927   0.171
 3597TP3     H121818   0.953   4.870   0.099
 3597TP3     H221819   1.008   4.944   0.214
 3598TP3      O21820   1.770   4.096   0.229
 3598TP3     H121821   1.796   4.150   0.307
 3598TP3     H221822   1.838   4.129   0.167
 3599TP3      O21823   1.235   4.372   0.198
 3599TP3     H121824   1.263   4.280   0.194
 3599TP3     H221825   1.228   4.392   0.102
 3600TP3      O21826   0.547   4.184  10.226
 3600TP3     H121827   0.563   4.265  10.174
 3600TP3     H221828   0.511   4.125  10.155
 3601TP3      O21829   1.324   4.189  10.064
 3601TP3     H121830   1.387   4.160  10.134
 3601TP3     H221831   1.380   4.252  10.016
 3602TP3      O21832   0.234   4.432  10.293
 3602TP3     H121833   0.283   4.368  10.346
 3602TP3     H221834   0.234   4.389  10.205
 3603TP3      O21835   0.722   4.581  10.241
 3603TP3     H121836   0.794   4.524  10.273
 3603TP3     H221837   0.677   4.519  10.181
 3604TP3      O21838   1.822   4.231   0.460
 3604TP3     H121839   1.768   4.311   0.442
 3604TP3     H221840   1.827   4.232   0.556
 3605TP3      O21841   0.440   4.072   0.320
 3605TP3     H121842   0.419   4.131   0.244
 3605TP3     H221843   0.370   4.097   0.385
 3606TP3      O21844   1.164   5.021   9.985
 3606TP3     H121845   1.145   5.000   9.892
 3606TP3     H221846   1.136   5.114   9.992
 3607TP3      O21847   0.689   4.839   0.335
 3607TP3     H121848   0.620   4.902   0.365
 3607TP3     H221849   0.760   4.900   0.309
 3608TP3      O21850   1.503   4.131  10.270
 3608TP3     H121851   1.490   4.050  10.320
 3608TP3     H221852   1.578   4.171  10.318
 3609TP3      O21853   0.403   4.257   0.123
 3609TP3     H121854   0.462   4.329   0.153
 3609TP3     H221855   0.453   4.221   0.044
 3610TP3      O21856   0.541   5.041   0.414
 3610TP3     H121857   0.536   5.135   0.390
 3610TP3     H221858   0.454   5.032   0.460
 3611TP3      O21859   0.137   5.001   9.816
 3611TP3     H121860   0.127   5.036   9.724
 3611TP3     H221861   0.151   5.082   9.867
 3612TP3      O21862   1.505   5.165   0.182
 3612TP3     H121863   1.408   5.179   0.192
 3612TP3     H221864   1.532   5.257   0.161
 3613TP3      O21865   1.535   3.995   0.308
 3613TP3     H121866   1.478   4.072   0.304
 3613TP3     H221867   1.617   4.033   0.268
 3614TP3      O21868   0.830   3.809   0.065
 3614TP3     H121869   0.808   3.714   0.050
 3614TP3     H221870   0.742   3.842   0.094
 3615TP3      O21871   1.331   5.346  10.147
 3615TP3     H121872   1.369   5.266  10.103
 3615TP3     H221873   1.390   5.417  10.116
 3616TP3      O21874   1.451   5.135  10.011
 3616TP3     H121875   1.421   5.070   9.944
 3616TP3     H221876   1.457   5.080  10.091
 3617TP3      O21877   1.613   5.001   0.541
 3617TP3     H121878   1.628   4.933   0.471
 3617TP3     H221879   1.633   5.083   0.492
 3618TP3      O21880   1.063   4.687   9.825
 3618TP3     H121881   0.998   4.748   9.784
 3618TP3     H221882   1.138   4.696   9.763
 3619TP3      O21883   1.069   4.547   9.543
 3619TP3     H121884   1.143   4.550   9.606
 3619TP3     H221885   1.103   4.483   9.481
 3620TP3      O21886   1.804   4.634   0.337
 3620TP3     H121887   1.740   4.708   0.341
 3620TP3     H221888   1.856   4.661   0.259
 3621TP3      O21889   1.415   4.705   9.925
 3621TP3     H121890   1.340   4.731   9.985
 3621TP3     H221891   1.464   4.641   9.981
 3622TP3      O21892   1.405   4.524   0.522
 3622TP3     H121893   1.403   4.609   0.570
 3622TP3     H221894   1.344   4.549   0.450
 3623TP3      O21895   0.576   4.775  10.115
 3623TP3     H121896   0.542   4.735  10.031
 3623TP3     H221897   0.636   4.704  10.149
 3624TP3      O21898   0.705   5.107   0.071
 3624TP3     H121899   0.707   5.066  -0.017
 3624TP3     H221900   0.783   5.067   0.113
 3625TP3      O21901   0.603   4.646   0.169
 3625TP3     H121902   0.652   4.654   0.085
 3625TP3     H221903   0.644   4.716   0.225
 3626TP3      O21904   1.244   5.206   0.236
 3626TP3     H121905   1.217   5.277   0.295
 3626TP3     H221906   1.222   5.123   0.284
 3627TP3      O21907   0.698   5.097   0.637
 3627TP3     H121908   0.646   5.160   0.693
 3627TP3     H221909   0.634   5.074   0.567
 3628TP3      O21910   1.303   4.633   9.689
 3628TP3     H121911   1.355   4.653   9.771
 3628TP3     H221912   1.345   4.688   9.619
 3629TP3      O21913   0.396   4.710   0.550
 3629TP3     H121914   0.399   4.779   0.621
 3629TP3     H221915   0.301   4.714   0.528
 3630TP3      O21916   1.069   5.297  10.040
 3630TP3     H121917   1.110   5.333  10.120
 3630TP3     H221918   1.013   5.369  10.008
 3631TP3      O21919   0.518   5.296   0.705
 3631TP3     H121920   0.507   5.279   0.609
 3631TP3     H221921   0.430   5.272   0.739
 3632TP3      O21922   1.673   3.800   9.683
 3632TP3     H121923   1.576   3.808   9.697
 3632TP3     H221924   1.693   3.886   9.640
 3633TP3      O21925   0.474   4.673   9.872
 3633TP3     H121926   0.438   4.751   9.825
 3633TP3     H221927   0.408   4.606   9.850
 3634TP3      O21928   1.807   5.221   9.557
 3634TP3     H121929   1.802   5.318   9.539
 3634TP3     H221930   1.895   5.200   9.521
 3635TP3      O21931   0.099   4.923   0.436
 3635TP3     H121932   0.051   4.912   0.354
 3635TP3     H221933   0.085   4.834   0.475
 3636TP3      O21934   0.062   5.204   0.118
 3636TP3     H121935   0.154   5.176   0.127
 3636TP3     H221936   0.051   5.266   0.190
 3637TP3      O21937   1.877   5.266   0.712
 3637TP3     H121938   1.865   5.170   0.698
 3637TP3     H221939   1.786   5.292   0.739
 3638TP3      O21940   0.965   5.216   0.568
 3638TP3     H121941   0.982   5.290   0.632
 3638TP3     H221942   0.885   5.174   0.605
 3639TP3      O21943   0.394   5.437  10.051
 3639TP3     H121944   0.406   5.412  10.146
 3639TP3     H221945   0.302   5.408  10.040
 3640TP3      O21946   1.315   5.522   9.579
 3640TP3     H121947   1.364   5.451   9.531
 3640TP3     H221948   1.320   5.486   9.669
 3641TP3      O21949   1.266   5.467   9.848
 3641TP3     H121950   1.184   5.505   9.882
 3641TP3     H221951   1.296   5.411   9.920
 3642TP3      O21952   1.590   4.406   0.742
 3642TP3     H121953   1.540   4.451   0.672
 3642TP3     H221954   1.587   4.314   0.713
 3643TP3      O21955   0.311   5.056   0.553
 3643TP3     H121956   0.316   5.018   0.643
 3643TP3     H221957   0.225   5.018   0.522
 3644TP3      O21958   0.580   3.901   0.137
 3644TP3     H121959   0.490   3.884   0.102
 3644TP3     H221960   0.561   3.980   0.190
 3645TP3      O21961   1.048   3.860   0.468
 3645TP3     H121962   1.079   3.819   0.552
 3645TP3     H221963   0.949   3.858   0.483
 3646TP3      O21964   1.358   4.252   0.557
 3646TP3     H121965   1.312   4.229   0.642
 3646TP3     H221966   1.351   4.349   0.548
 3647TP3      O21967   1.451   4.737   9.485
 3647TP3     H121968   1.446   4.731   9.389
 3647TP3     H221969   1.537   4.782   9.493
 3648TP3      O21970   1.017   4.137   9.550
 3648TP3     H121971   0.976   4.114   9.635
 3648TP3     H221972   1.011   4.052   9.502
 3649TP3      O21973   0.584   4.398   0.270
 3649TP3     H121974   0.510   4.401   0.333
 3649TP3     H221975   0.579   4.488   0.230
 3650TP3      O21976   0.581   4.402  10.069
 3650TP3     H121977   0.486   4.383  10.056
 3650TP3     H221978   0.616   4.378   9.980
 3651TP3      O21979   1.137   4.457   9.939
 3651TP3     H121980   1.098   4.541   9.907
 3651TP3     H221981   1.203   4.438   9.869
 3652TP3      O21982   1.033   4.482   0.770
 3652TP3     H121983   0.986   4.400   0.800
 3652TP3     H221984   1.119   4.474   0.817
 3653TP3      O21985   1.239   4.410  10.233
 3653TP3     H121986   1.206   4.467  10.161
 3653TP3     H221987   1.245   4.326  10.184
 3654TP3      O21988   0.340   4.420   0.429
 3654TP3     H121989   0.356   4.460   0.516
 3654TP3     H221990   0.306   4.332   0.453
 3655TP3      O21991   0.694   4.203   9.483
 3655TP3     H121992   0.639   4.131   9.521
 3655TP3     H221993   0.645   4.238   9.408
 3656TP3      O21994   0.036   4.175  10.132
 3656TP3     H121995   0.081   4.147  10.215
 3656TP3     H221996   0.069   4.113  10.065
 3657TP3      O21997   0.138   4.214   9.684
 3657TP3     H121998   0.199   4.257   9.620
 3657TP3     H221999   0.070   4.281   9.691
 3658TP3      O22000   1.153   4.565   0.363
 3658TP3     H122001   1.195   4.496   0.307
 3658TP3     H222002   1.104   4.513   0.430
 3659TP3      O22003   0.836   4.167  10.166
 3659TP3     H122004   0.742   4.164  10.192
 3659TP3     H222005   0.880   4.145  10.249
 3660TP3      O22006   0.316   4.315  10.056
 3660TP3     H122007   0.229   4.338  10.019
 3660TP3     H222008   0.333   4.229  10.014
 3661TP3      O22009   0.677   4.329   9.818
 3661TP3     H122010   0.774   4.337   9.831
 3661TP3     H222011   0.655   4.390   9.745
 3662TP3      O22012   1.275   4.091   0.167
 3662TP3     H122013   1.203   4.125   0.224
 3662TP3     H222014   1.230   4.073   0.082
 3663TP3      O22015   0.550   4.446   9.577
 3663TP3     H122016   0.497   4.406   9.506
 3663TP3     H222017   0.635   4.464   9.533
 3664TP3      O22018   0.385   4.876   0.757
 3664TP3     H122019   0.441   4.924   0.821
 3664TP3     H222020   0.301   4.895   0.806
 3665TP3      O22021   0.961   4.441   0.037
 3665TP3     H122022   1.025   4.389  -0.013
 3665TP3     H222023   0.946   4.387   0.116
 3666TP3      O22024   0.465   4.052  10.005
 3666TP3     H122025   0.431   3.961  10.008
 3666TP3     H222026   0.542   4.042   9.948
 3667TP3      O22027   0.828   4.270   0.284
 3667TP3     H122028   0.746   4.323   0.286
 3667TP3     H222029   0.882   4.313   0.351
 3668TP3      O22030   0.885   4.890   9.773
 3668TP3     H122031   0.804   4.843   9.742
 3668TP3     H222032   0.860   4.909   9.866
 3669TP3      O22033   1.612   4.820   0.333
 3669TP3     H122034   1.662   4.871   0.266
 3669TP3     H222035   1.524   4.816   0.290
 3670TP3      O22036   1.278   4.171   9.587
 3670TP3     H122037   1.183   4.185   9.570
 3670TP3     H222038   1.307   4.259   9.619
 3671TP3      O22039   1.036   4.927   0.579
 3671TP3     H122040   1.001   4.878   0.654
 3671TP3     H222041   1.003   5.016   0.593
 3672TP3      O22042   1.343   4.372   9.752
 3672TP3     H122043   1.430   4.356   9.794
 3672TP3     H222044   1.357   4.454   9.702
 3673TP3      O22045   0.401   4.838   0.033
 3673TP3     H122046   0.460   4.827  -0.044
 3673TP3     H222047   0.406   4.751   0.077
 3674TP3      O22048   1.093   5.038   9.685
 3674TP3     H122049   1.052   5.124   9.709
 3674TP3     H222050   1.020   4.975   9.698
 3675TP3      O22051   0.113   4.663   0.546
 3675TP3     H122052   0.134   4.629   0.635
 3675TP3     H222053   0.038   4.608   0.517
 3676TP3      O22054   0.795   4.631   0.771
 3676TP3     H122055   0.761   4.591   0.690
 3676TP3     H222056   0.886   4.596   0.772
 3677TP3      O22057   1.269   5.176   0.572
 3677TP3     H122058   1.176   5.183   0.547
 3677TP3     H222059   1.258   5.194   0.668
 3678TP3      O22060   1.830   4.377   9.730
 3678TP3     H122061   1.775   4.350   9.656
 3678TP3     H222062   1.841   4.472   9.709
 3679TP3      O22063   1.834   4.968   0.689
 3679TP3     H122064   1.744   4.991   0.655
 3679TP3     H222065   1.886   4.964   0.606
 3680TP3      O22066   1.640   5.257   9.760
 3680TP3     H122067   1.628   5.169   9.797
 3680TP3     H222068   1.700   5.240   9.684
 3681TP3      O22069   1.385   4.746   0.162
 3681TP3     H122070   1.291   4.729   0.145
 3681TP3     H222071   1.427   4.672   0.115
 3682TP3      O22072   0.635   5.184  10.098
 3682TP3     H122073   0.678   5.265  10.067
 3682TP3     H222074   0.549   5.193  10.054
 3683TP3      O22075   0.210   4.650   9.569
 3683TP3     H122076   0.269   4.726   9.583
 3683TP3     H222077   0.123   4.691   9.570
 3684TP3      O22078   0.772   4.947  10.028
 3684TP3     H122079   0.739   5.038  10.043
 3684TP3     H222080   0.710   4.895  10.084
 3685TP3      O22081   0.820   5.358   0.359
 3685TP3     H122082   0.860   5.445   0.343
 3685TP3     H222083   0.882   5.318   0.423
 3686TP3      O22084   0.651   5.423   9.972
 3686TP3     H122085   0.557   5.431   9.999
 3686TP3     H222086   0.685   5.504  10.016
 3687TP3      O22087   1.164   4.959   0.323
 3687TP3     H122088   1.140   4.946   0.418
 3687TP3     H222089   1.232   4.891   0.307
 3688TP3      O22090   1.410   5.068   9.557
 3688TP3     H122091   1.433   5.021   9.640
 3688TP3     H222092   1.315   5.052   9.556
 3689TP3      O22093   1.454   5.417   0.571
 3689TP3     H122094   1.379   5.371   0.528
 3689TP3     H222095   1.463   5.497   0.517
 3690TP3      O22096   1.866  -0.040   9.571
 3690TP3     H122097   1.935   0.027   9.564
 3690TP3     H222098   1.783   0.008   9.596
 3691TP3      O22099   0.261   4.146   0.506
 3691TP3     H122100   0.174   4.188   0.516
 3691TP3     H222101   0.250   4.065   0.559
 3692TP3      O22102   1.484   4.928   9.779
 3692TP3     H122103   1.462   4.845   9.826
 3692TP3     H222104   1.578   4.938   9.798
 3693TP3      O22105   0.227   5.320   0.361
 3693TP3     H122106   0.253   5.227   0.362
 3693TP3     H222107   0.249   5.349   0.450
 3694TP3      O22108   0.697   5.130   9.642
 3694TP3     H122109   0.731   5.077   9.716
 3694TP3     H222110   0.707   5.221   9.676
 3695TP3      O22111   0.350   4.859   9.690
 3695TP3     H122112   0.280   4.898   9.747
 3695TP3     H222113   0.401   4.936   9.660
 3696TP3      O22114   1.147   4.114   0.412
 3696TP3     H122115   1.201   4.148   0.486
 3696TP3     H222116   1.084   4.056   0.458
 3697TP3      O22117   1.205   4.079   9.840
 3697TP3     H122118   1.232   4.120   9.755
 3697TP3     H222119   1.265   4.123   9.901
 3698TP3      O22120   0.969   5.297   9.715
 3698TP3     H122121   0.885   5.345   9.713
 3698TP3     H222122   1.027   5.349   9.655
 3699TP3      O22123   0.934   4.253   9.917
 3699TP3     H122124   1.007   4.317   9.922
 3699TP3     H222125   0.902   4.241  10.009
 3700TP3      O22126   0.991   4.357   0.523
 3700TP3     H122127   0.994   4.414   0.603
 3700TP3     H222128   1.060   4.292   0.537
 3701TP3      O22129   1.015   3.958  10.000
 3701TP3     H122130   0.980   4.023  10.062
 3701TP3     H222131   1.088   4.012   9.959
 3702TP3      O22132   0.723   5.407   9.710
 3702TP3     H122133   0.728   5.496   9.673
 3702TP3     H222134   0.688   5.422   9.801
 3703TP3      O22135   0.580   4.069   9.684
 3703TP3     H122136   0.574   4.161   9.717
 3703TP3     H222137   0.671   4.047   9.711
 3704TP3      O22138   1.597   4.146   0.608
 3704TP3     H122139   1.508   4.183   0.590
 3704TP3     H222140   1.636   4.145   0.519
 3705TP3      O22141   1.468   4.524   0.003
 3705TP3     H122142   1.386   4.476  -0.021
 3705TP3     H222143   1.520   4.457   0.053
 3706TP3      O22144   0.407   5.115   9.568
 3706TP3     H122145   0.470   5.171   9.613
 3706TP3     H222146   0.467   5.063   9.510
 3707TP3      O22147   0.242   4.384   9.491
 3707TP3     H122148   0.250   4.479   9.514
 3707TP3     H222149   0.153   4.376   9.461
 3708TP3      O22150   1.569   5.439   0.204
 3708TP3     H122151   1.554   5.488   0.119
 3708TP3     H222152   1.666   5.449   0.203
 3709TP3      O22153   0.320   3.866   0.057
 3709TP3     H122154   0.317   3.863  -0.041
 3709TP3     H222155   0.282   3.778   0.078
 3710TP3      O22156   0.217   5.238   9.985
 3710TP3     H122157   0.129   5.280   9.983
 3710TP3     H222158   0.259   5.289   9.913
 3711TP3      O22159   0.122   5.507   0.824
 3711TP3     H122160   0.196   5.477   0.879
 3711TP3     H222161   0.106   5.424   0.776
 3712TP3      O22162   0.608   5.395   0.957
 3712TP3     H122163   0.693   5.359   0.985
 3712TP3     H222164   0.602   5.362   0.865
 3713TP3      O22165   1.059   5.386   9.483
 3713TP3     H122166   0.982   5.328   9.472
 3713TP3     H222167   1.119   5.345   9.419
 3714TP3      O22168   1.251   5.244   0.835
 3714TP3     H122169   1.220   5.157   0.870
 3714TP3     H222170   1.332   5.260   0.887
 3715TP3      O22171   1.446   5.350   9.441
 3715TP3     H122172   1.470   5.268   9.489
 3715TP3     H222173   1.531   5.357   9.391
 3716TP3      O22174   0.133   4.891   0.826
 3716TP3     H122175   0.135   4.802   0.866
 3716TP3     H222176   0.041   4.918   0.830
 3717TP3      O22177   0.568   4.939   9.433
 3717TP3     H122178   0.577   4.855   9.480
 3717TP3     H222179   0.617   4.918   9.352
 3718TP3      O22180   0.813   4.896   0.824
 3718TP3     H122181   0.767   4.933   0.746
 3718TP3     H222182   0.802   4.799   0.816
 3719TP3      O22183   1.364   4.882   0.575
 3719TP3     H122184   1.448   4.933   0.573
 3719TP3     H222185   1.300   4.955   0.576
 3720TP3      O22186   0.204   4.600   0.830
 3720TP3     H122187   0.271   4.530   0.830
 3720TP3     H222188   0.198   4.619   0.925
 3721TP3      O22189   0.690   4.738   9.662
 3721TP3     H122190   0.630   4.684   9.717
 3721TP3     H222191   0.722   4.671   9.597
 3722TP3      O22192   0.607   4.511   0.566
 3722TP3     H122193   0.547   4.584   0.591
 3722TP3     H222194   0.652   4.550   0.489
 3723TP3      O22195   0.796   4.561   9.476
 3723TP3     H122196   0.790   4.539   9.383
 3723TP3     H222197   0.894   4.564   9.493
 3724TP3      O22198   1.122   4.772   0.907
 3724TP3     H122199   1.215   4.761   0.885
 3724TP3     H222200   1.101   4.694   0.960
 3725TP3      O22201   1.703   4.810   9.423
 3725TP3     H122202   1.697   4.758   9.341
 3725TP3     H222203   1.734   4.897   9.395
 3726TP3      O22204   0.664   4.251   0.667
 3726TP3     H122205   0.666   4.181   0.600
 3726TP3     H222206   0.645   4.332   0.616
 3727TP3      O22207   0.696   4.086   0.428
 3727TP3     H122208   0.741   4.138   0.358
 3727TP3     H222209   0.604   4.082   0.394
 3728TP3      O22210   0.844   4.640   0.451
 3728TP3     H122211   0.922   4.627   0.397
 3728TP3     H222212   0.807   4.723   0.416
 3729TP3      O22213   1.283   4.411   0.944
 3729TP3     H122214   1.310   4.318   0.939
 3729TP3     H222215   1.368   4.457   0.954
 3730TP3      O22216   1.421   4.695   0.772
 3730TP3     H122217   1.394   4.764   0.708
 3730TP3     H222218   1.516   4.692   0.753
 3731TP3      O22219   0.498   4.377   0.863
 3731TP3     H122220   0.424   4.314   0.853
 3731TP3     H222221   0.561   4.340   0.800
 3732TP3      O22222   0.774   3.833   0.459
 3732TP3     H122223   0.746   3.928   0.458
 3732TP3     H222224   0.697   3.792   0.416
 3733TP3      O22225   0.901   4.266   0.836
 3733TP3     H122226   0.864   4.240   0.923
 3733TP3     H222227   0.826   4.244   0.777
 3734TP3      O22228   1.168   4.173   0.741
 3734TP3     H122229   1.074   4.190   0.758
 3734TP3     H222230   1.193   4.118   0.819
 3735TP3      O22231   1.324   4.042   0.928
 3735TP3     H122232   1.325   3.944   0.932
 3735TP3     H222233   1.307   4.071   1.020
 3736TP3      O22234   0.313   4.167   0.844
 3736TP3     H122235   0.324   4.089   0.787
 3736TP3     H222236   0.290   4.126   0.929
 3737TP3      O22237   0.791   3.776   0.737
 3737TP3     H122238   0.856   3.704   0.739
 3737TP3     H222239   0.775   3.781   0.640
 3738TP3      O22240   0.828   3.932   0.956
 3738TP3     H122241   0.809   3.881   0.874
 3738TP3     H222242   0.769   4.010   0.946
 3739TP3      O22243   0.141   5.048   9.544
 3739TP3     H122244   0.226   5.097   9.558
 3739TP3     H222245   0.147   5.029   9.451
 3740TP3      O22246   0.098   5.427  10.211
 3740TP3     H122247   0.052   5.346  10.236
 3740TP3     H222248   0.112   5.467  10.299
 3741TP3      O22249   1.839  -0.006   0.189
 3741TP3     H122250   1.858  -0.007   0.284
 3741TP3     H222251   1.917   0.041   0.157
 3742TP3      O22252   1.830   5.430   0.463
 3742TP3     H122253   1.763   5.362   0.444
 3742TP3     H222254   1.859   5.408   0.552
 3743TP3      O22255   1.647   5.040   0.956
 3743TP3     H122256   1.555   5.044   0.990
 3743TP3     H222257   1.684   5.124   0.990
 3744TP3      O22258   1.781   4.876   9.809
 3744TP3     H122259   1.863   4.923   9.833
 3744TP3     H222260   1.776   4.811   9.882
 3745TP3      O22261   1.812   4.689  10.001
 3745TP3     H122262   1.735   4.640  10.040
 3745TP3     H222263   1.872   4.699  10.078
 3746TP3      O22264   1.787   4.956   0.181
 3746TP3     H122265   1.867   4.917   0.143
 3746TP3     H222266   1.802   5.051   0.167
 3747TP3      O22267   1.638   5.238   0.422
 3747TP3     H122268   1.569   5.287   0.468
 3747TP3     H222269   1.589   5.211   0.342
 3748TP3      O22270   1.842   4.669   9.634
 3748TP3     H122271   1.779   4.704   9.569
 3748TP3     H222272   1.833   4.736   9.705
 3749TP3      O22273   1.628   4.390   9.495
 3749TP3     H122274   1.685   4.450   9.444
 3749TP3     H222275   1.664   4.306   9.464
 3750TP3      O22276   1.594   4.536  10.063
 3750TP3     H122277   1.581   4.440  10.051
 3750TP3     H222278   1.567   4.549  10.156
 3751TP3      O22279   0.094   4.737   0.154
 3751TP3     H122280   0.107   4.740   0.057
 3751TP3     H222281   0.185   4.721   0.184
 3752TP3      O22282   1.686   4.729   0.716
 3752TP3     H122283   1.747   4.653   0.725
 3752TP3     H222284   1.747   4.806   0.713
 3753TP3      O22285   1.834   4.515   0.776
 3753TP3     H122286   1.745   4.476   0.763
 3753TP3     H222287   1.891   4.435   0.773
 3754TP3      O22288   1.561   4.293   9.909
 3754TP3     H122289   1.588   4.198   9.918
 3754TP3     H222290   1.638   4.329   9.863
 3755TP3      O22291   1.628   4.349   0.135
 3755TP3     H122292   1.724   4.368   0.131
 3755TP3     H222293   1.614   4.365   0.230
 3756TP3      O22294   1.638   4.420   0.409
 3756TP3     H122295   1.548   4.446   0.438
 3756TP3     H222296   1.680   4.507   0.388
 3757TP3      O22297   0.080   4.273   0.756
 3757TP3     H122298   0.167   4.246   0.789
 3757TP3     H222299   0.021   4.203   0.788
 3758TP3      O22300   1.864   3.833   0.945
 3758TP3     H122301   1.902   3.761   0.890
 3758TP3     H222302   1.868   3.907   0.882
 3759TP3      O22303   1.630   4.023   9.907
 3759TP3     H122304   1.658   3.981   9.991
 3759TP3     H222305   1.573   3.954   9.865
 3760TP3      O22306   0.174   4.102   0.046
 3760TP3     H122307   0.226   4.021   0.067
 3760TP3     H222308   0.229   4.169   0.089
 3761TP3      O22309   0.059   4.411   0.176
 3761TP3     H122310   0.100   4.392   0.089
 3761TP3     H222311   0.072   4.507   0.179
 3762TP3      O22312   1.814   4.036   0.772
 3762TP3     H122313   1.722   4.066   0.772
 3762TP3     H222314   1.809   3.975   0.697
 3763TP3      O22315   1.812   4.030   9.568
 3763TP3     H122316   1.851   3.959   9.516
 3763TP3     H222317   1.883   4.095   9.567
 3764TP3      O22318   0.072   4.030   9.862
 3764TP3     H122319  -0.024   4.046   9.859
 3764TP3     H222320   0.106   4.088   9.791
 3765TP3      O22321   0.057   3.894   0.369
 3765TP3     H122322   0.004   3.897   0.449
 3765TP3     H222323   0.008   3.960   0.318
 3766TP3      O22324   0.233   5.272   0.779
 3766TP3     H122325   0.163   5.217   0.744
 3766TP3     H222326   0.254   5.221   0.861
 3767TP3      O22327   0.547   5.309   0.436
 3767TP3     H122328   0.513   5.397   0.416
 3767TP3     H222329   0.638   5.318   0.402
 3768TP3      O22330   1.013   5.428   0.724
 3768TP3     H122331   1.009   5.416   0.823
 3768TP3     H222332   1.091   5.483   0.717
 3769TP3      O22333   1.716   3.846   0.569
 3769TP3     H122334   1.635   3.876   0.525
 3769TP3     H222335   1.733   3.759   0.525
 3770TP3      O22336   1.241   5.466   0.353
 3770TP3     H122337   1.154   5.503   0.337
 3770TP3     H222338   1.296   5.545   0.343
 3771TP3      O22339   0.225   5.462   0.133
 3771TP3     H122340   0.223   5.434   0.227
 3771TP3     H222341   0.311   5.427   0.101
 3772TP3      O22342   0.436   5.359  -0.010
 3772TP3     H122343   0.433   5.264   0.014
 3772TP3     H222344   0.522   5.384   0.029
 3773TP3      O22345   0.684   5.386   0.088
 3773TP3     H122346   0.716   5.298   0.062
 3773TP3     H222347   0.710   5.393   0.181
 3774TP3      O22348   1.062   3.978  10.320
 3774TP3     H122349   0.983   3.923  10.336
 3774TP3     H222350   1.105   3.929  10.248
 3775TP3      O22351   1.570   3.791  10.312
 3775TP3     H122352   1.630   3.849  10.258
 3775TP3     H222353   1.481   3.824  10.287
 3776TP3      O22354   1.734   3.919  10.136
 3776TP3     H122355   1.802   3.858  10.100
 3776TP3     H222356   1.788   3.999  10.152
 3777TP3      O22357   0.301   3.847  10.093
 3777TP3     H122358   0.218   3.834  10.041
 3777TP3     H222359   0.337   3.756  10.084
 3778TP3      O22360   0.190   3.823   9.679
 3778TP3     H122361   0.219   3.885   9.610
 3778TP3     H222362   0.122   3.875   9.725
 3779TP3      O22363   0.733   3.839  10.075
 3779TP3     H122364   0.822   3.873  10.058
 3779TP3     H222365   0.737   3.819  10.169
 3780TP3      O22366   1.314   3.842  10.235
 3780TP3     H122367   1.305   3.858  10.140
 3780TP3     H222368   1.273   3.753  10.246
 3781TP3      O22369   1.436   3.841   9.798
 3781TP3     H122370   1.363   3.902   9.784
 3781TP3     H222371   1.390   3.759   9.827
 3782TP3      O22372   0.174   5.386   9.771
 3782TP3     H122373   0.103   5.389   9.704
 3782TP3     H222374   0.183   5.483   9.781
 3783TP3      O22375   0.349   4.012   9.518
 3783TP3     H122376   0.400   3.948   9.468
 3783TP3     H222377   0.416   4.046   9.580
 3784TP3      O22378   0.853   4.039   9.760
 3784TP3     H122379   0.882   3.985   9.834
 3784TP3     H222380   0.865   4.128   9.801
 3785TP3      O22381   1.720   5.485   9.894
 3785TP3     H122382   1.696   5.409   9.836
 3785TP3     H222383   1.706   5.559   9.834
 3786TP3      O22384   0.280   3.905   0.722
 3786TP3     H122385   0.236   3.825   0.758
 3786TP3     H222386   0.368   3.898   0.765
 3787TP3      O22387   0.478   3.845   0.893
 3787TP3     H122388   0.567   3.811   0.869
 3787TP3     H222389   0.441   3.763   0.929
 3788TP3      O22390   0.390   5.532   9.480
 3788TP3     H122391   0.319   5.532   9.548
 3788TP3     H222392   0.412   5.440   9.476
 3789TP3      O22393   1.319   3.769   0.907
 3789TP3     H122394   1.329   3.720   0.991
 3789TP3     H222395   1.409   3.766   0.870
 3790TP3      O22396   1.633   5.364   0.772
 3790TP3     H122397   1.561   5.367   0.705
 3790TP3     H222398   1.646   5.460   0.781
 3791TP3      O22399   3.088   4.764  10.075
 3791TP3     H122400   3.081   4.862  10.074
 3791TP3     H222401   3.012   4.740  10.019
 3792TP3      O22402   2.970   4.683   0.109
 3792TP3     H122403   2.972   4.623   0.185
 3792TP3     H222404   2.930   4.630   0.038
 3793TP3      O22405   2.208   4.652   0.262
 3793TP3     H122406   2.210   4.589   0.336
 3793TP3     H222407   2.275   4.715   0.290
 3794TP3      O22408   3.335   4.981  10.260
 3794TP3     H122409   3.292   4.914  10.313
 3794TP3     H222410   3.342   5.053  10.326
 3795TP3      O22411   2.300   5.103   0.109
 3795TP3     H122412   2.271   5.012   0.085
 3795TP3     H222413   2.396   5.088   0.113
 3796TP3      O22414   1.960   4.452   9.983
 3796TP3     H122415   1.916   4.539   9.978
 3796TP3     H222416   1.905   4.399   9.923
 3797TP3      O22417   2.035   4.679  10.203
 3797TP3     H122418   2.066   4.595  10.243
 3797TP3     H222419   2.098   4.694  10.131
 3798TP3      O22420   3.026   5.468  10.286
 3798TP3     H122421   3.097   5.405  10.262
 3798TP3     H222422   3.006   5.438  10.377
 3799TP3      O22423   2.805   4.922   0.169
 3799TP3     H122424   2.842   4.870   0.097
 3799TP3     H222425   2.888   4.953   0.211
 3800TP3      O22426   3.663   4.095   0.229
 3800TP3     H122427   3.683   4.151   0.307
 3800TP3     H222428   3.727   4.132   0.166
 3801TP3      O22429   3.119   4.372   0.198
 3801TP3     H122430   3.146   4.278   0.198
 3801TP3     H222431   3.115   4.386   0.101
 3802TP3      O22432   2.435   4.182  10.227
 3802TP3     H122433   2.450   4.264  10.176
 3802TP3     H222434   2.397   4.124  10.158
 3803TP3      O22435   3.208   4.189  10.067
 3803TP3     H122436   3.271   4.159  10.136
 3803TP3     H222437   3.266   4.251  10.018
 3804TP3      O22438   2.096   4.426  10.301
 3804TP3     H122439   2.161   4.374  10.350
 3804TP3     H222440   2.111   4.393  10.211
 3805TP3      O22441   2.607   4.578  10.244
 3805TP3     H122442   2.683   4.523  10.270
 3805TP3     H222443   2.563   4.519  10.181
 3806TP3      O22444   3.707   4.231   0.460
 3806TP3     H122445   3.652   4.312   0.443
 3806TP3     H222446   3.711   4.232   0.556
 3807TP3      O22447   2.335   4.078   0.318
 3807TP3     H122448   2.301   4.130   0.242
 3807TP3     H222449   2.263   4.094   0.384
 3808TP3      O22450   3.050   5.020   9.982
 3808TP3     H122451   3.031   5.000   9.889
 3808TP3     H222452   3.021   5.113   9.992
 3809TP3      O22453   2.574   4.838   0.339
 3809TP3     H122454   2.509   4.906   0.364
 3809TP3     H222455   2.645   4.895   0.304
 3810TP3      O22456   3.393   4.129  10.267
 3810TP3     H122457   3.371   4.052  10.320
 3810TP3     H222458   3.464   4.169  10.319
 3811TP3      O22459   2.292   4.257   0.124
 3811TP3     H122460   2.350   4.331   0.149
 3811TP3     H222461   2.338   4.221   0.043
 3812TP3      O22462   2.427   5.043   0.423
 3812TP3     H122463   2.422   5.135   0.391
 3812TP3     H222464   2.336   5.032   0.461
 3813TP3      O22465   2.026   4.996   9.817
 3813TP3     H122466   2.014   5.039   9.729
 3813TP3     H222467   2.041   5.074   9.874
 3814TP3      O22468   3.407   5.166   0.170
 3814TP3     H122469   3.313   5.175   0.201
 3814TP3     H222470   3.424   5.261   0.158
 3815TP3      O22471   3.423   3.993   0.314
 3815TP3     H122472   3.353   4.058   0.301
 3815TP3     H222473   3.498   4.035   0.266
 3816TP3      O22474   2.714   3.808   0.063
 3816TP3     H122475   2.695   3.713   0.054
 3816TP3     H222476   2.627   3.841   0.095
 3817TP3      O22477   3.217   5.346  10.146
 3817TP3     H122478   3.256   5.265  10.103
 3817TP3     H222479   3.276   5.417  10.118
 3818TP3      O22480   3.334   5.136  10.014
 3818TP3     H122481   3.306   5.072   9.946
 3818TP3     H222482   3.345   5.078  10.092
 3819TP3      O22483   3.499   5.001   0.541
 3819TP3     H122484   3.513   4.933   0.471
 3819TP3     H222485   3.518   5.083   0.492
 3820TP3      O22486   2.947   4.686   9.824
 3820TP3     H122487   2.883   4.749   9.784
 3820TP3     H222488   3.023   4.696   9.763
 3821TP3      O22489   2.955   4.548   9.544
 3821TP3     H122490   3.029   4.550   9.606
 3821TP3     H222491   2.988   4.483   9.481
 3822TP3      O22492   3.691   4.633   0.337
 3822TP3     H122493   3.628   4.708   0.341
 3822TP3     H222494   3.744   4.659   0.260
 3823TP3      O22495   3.301   4.705   9.925
 3823TP3     H122496   3.226   4.730   9.985
 3823TP3     H222497   3.350   4.642   9.980
 3824TP3      O22498   3.291   4.525   0.521
 3824TP3     H122499   3.289   4.609   0.570
 3824TP3     H222500   3.229   4.550   0.450
 3825TP3      O22501   2.457   4.772  10.116
 3825TP3     H122502   2.425   4.735  10.030
 3825TP3     H222503   2.520   4.703  10.148
 3826TP3      O22504   2.588   5.100   0.074
 3826TP3     H122505   2.600   5.066  -0.016
 3826TP3     H222506   2.674   5.077   0.113
 3827TP3      O22507   2.493   4.641   0.173
 3827TP3     H122508   2.535   4.654   0.085
 3827TP3     H222509   2.531   4.717   0.224
 3828TP3      O22510   3.175   5.198   0.278
 3828TP3     H122511   3.106   5.267   0.275
 3828TP3     H222512   3.118   5.118   0.287
 3829TP3      O22513   2.583   5.094   0.641
 3829TP3     H122514   2.533   5.162   0.689
 3829TP3     H222515   2.527   5.077   0.561
 3830TP3      O22516   3.188   4.633   9.689
 3830TP3     H122517   3.241   4.654   9.771
 3830TP3     H222518   3.230   4.688   9.619
 3831TP3      O22519   2.281   4.708   0.543
 3831TP3     H122520   2.290   4.774   0.614
 3831TP3     H222521   2.185   4.713   0.531
 3832TP3      O22522   2.956   5.295  10.041
 3832TP3     H122523   2.995   5.329  10.123
 3832TP3     H222524   2.899   5.367  10.012
 3833TP3      O22525   2.403   5.297   0.703
 3833TP3     H122526   2.397   5.284   0.606
 3833TP3     H222527   2.314   5.270   0.733
 3834TP3      O22528   3.558   3.801   9.683
 3834TP3     H122529   3.461   3.807   9.699
 3834TP3     H222530   3.577   3.886   9.640
 3835TP3      O22531   2.350   4.672   9.874
 3835TP3     H122532   2.320   4.751   9.823
 3835TP3     H222533   2.287   4.605   9.846
 3836TP3      O22534   3.692   5.222   9.557
 3836TP3     H122535   3.687   5.318   9.539
 3836TP3     H222536   3.781   5.202   9.522
 3837TP3      O22537   1.964   4.922   0.455
 3837TP3     H122538   1.919   4.912   0.369
 3837TP3     H222539   1.976   4.826   0.476
 3838TP3      O22540   1.943   5.195   0.128
 3838TP3     H122541   2.039   5.186   0.122
 3838TP3     H222542   1.933   5.279   0.176
 3839TP3      O22543   3.763   5.266   0.712
 3839TP3     H122544   3.751   5.170   0.698
 3839TP3     H222545   3.672   5.292   0.739
 3840TP3      O22546   2.856   5.205   0.581
 3840TP3     H122547   2.866   5.290   0.630
 3840TP3     H222548   2.766   5.176   0.604
 3841TP3      O22549   2.283   5.434  10.054
 3841TP3     H122550   2.292   5.411  10.150
 3841TP3     H222551   2.190   5.409  10.040
 3842TP3      O22552   3.200   5.522   9.579
 3842TP3     H122553   3.248   5.450   9.531
 3842TP3     H222554   3.205   5.486   9.670
 3843TP3      O22555   3.152   5.469   9.849
 3843TP3     H122556   3.070   5.505   9.885
 3843TP3     H222557   3.182   5.411   9.920
 3844TP3      O22558   3.476   4.407   0.743
 3844TP3     H122559   3.425   4.452   0.672
 3844TP3     H222560   3.471   4.315   0.715
 3845TP3      O22561   2.194   5.050   0.545
 3845TP3     H122562   2.211   5.015   0.635
 3845TP3     H222563   2.105   5.016   0.522
 3846TP3      O22564   2.462   3.903   0.132
 3846TP3     H122565   2.372   3.884   0.099
 3846TP3     H222566   2.442   3.980   0.188
 3847TP3      O22567   2.929   3.859   0.470
 3847TP3     H122568   2.966   3.820   0.552
 3847TP3     H222569   2.831   3.852   0.486
 3848TP3      O22570   3.250   4.253   0.564
 3848TP3     H122571   3.193   4.228   0.641
 3848TP3     H222572   3.232   4.347   0.546
 3849TP3      O22573   3.338   4.735   9.484
 3849TP3     H122574   3.333   4.730   9.388
 3849TP3     H222575   3.424   4.781   9.493
 3850TP3      O22576   2.903   4.137   9.550
 3850TP3     H122577   2.862   4.114   9.636
 3850TP3     H222578   2.895   4.053   9.502
 3851TP3      O22579   2.470   4.400   0.278
 3851TP3     H122580   2.382   4.395   0.323
 3851TP3     H222581   2.458   4.483   0.224
 3852TP3      O22582   2.468   4.401  10.067
 3852TP3     H122583   2.372   4.382  10.055
 3852TP3     H222584   2.502   4.378   9.978
 3853TP3      O22585   3.023   4.458   9.939
 3853TP3     H122586   2.983   4.541   9.906
 3853TP3     H222587   3.089   4.439   9.869
 3854TP3      O22588   2.920   4.481   0.767
 3854TP3     H122589   2.874   4.401   0.802
 3854TP3     H222590   3.005   4.476   0.816
 3855TP3      O22591   3.125   4.410  10.233
 3855TP3     H122592   3.093   4.467  10.161
 3855TP3     H222593   3.131   4.325  10.185
 3856TP3      O22594   2.237   4.411   0.429
 3856TP3     H122595   2.241   4.460   0.513
 3856TP3     H222596   2.187   4.331   0.454
 3857TP3      O22597   2.580   4.205   9.480
 3857TP3     H122598   2.527   4.133   9.521
 3857TP3     H222599   2.529   4.238   9.406
 3858TP3      O22600   1.900   4.125  10.154
 3858TP3     H122601   1.971   4.122  10.222
 3858TP3     H222602   1.945   4.094  10.073
 3859TP3      O22603   2.026   4.202   9.685
 3859TP3     H122604   2.080   4.256   9.624
 3859TP3     H222605   1.960   4.269   9.714
 3860TP3      O22606   3.038   4.563   0.363
 3860TP3     H122607   3.082   4.495   0.307
 3860TP3     H222608   2.996   4.511   0.433
 3861TP3      O22609   2.724   4.168  10.170
 3861TP3     H122610   2.630   4.162  10.197
 3861TP3     H222611   2.772   4.136  10.248
 3862TP3      O22612   2.203   4.317  10.061
 3862TP3     H122613   2.118   4.337  10.016
 3862TP3     H222614   2.230   4.234  10.017
 3863TP3      O22615   2.563   4.328   9.816
 3863TP3     H122616   2.660   4.336   9.831
 3863TP3     H222617   2.542   4.391   9.745
 3864TP3      O22618   3.163   4.091   0.173
 3864TP3     H122619   3.097   4.088   0.245
 3864TP3     H222620   3.114   4.057   0.097
 3865TP3      O22621   2.435   4.447   9.578
 3865TP3     H122622   2.380   4.407   9.509
 3865TP3     H222623   2.520   4.462   9.533
 3866TP3      O22624   2.247   4.897   0.769
 3866TP3     H122625   2.322   4.920   0.827
 3866TP3     H222626   2.173   4.897   0.832
 3867TP3      O22627   2.845   4.436   0.040
 3867TP3     H122628   2.909   4.390  -0.016
 3867TP3     H222629   2.838   4.378   0.116
 3868TP3      O22630   2.347   4.052  10.006
 3868TP3     H122631   2.314   3.960  10.009
 3868TP3     H222632   2.426   4.043   9.950
 3869TP3      O22633   2.716   4.261   0.277
 3869TP3     H122634   2.639   4.319   0.265
 3869TP3     H222635   2.781   4.304   0.337
 3870TP3      O22636   2.771   4.889   9.773
 3870TP3     H122637   2.690   4.843   9.742
 3870TP3     H222638   2.746   4.910   9.866
 3871TP3      O22639   3.497   4.821   0.333
 3871TP3     H122640   3.549   4.870   0.266
 3871TP3     H222641   3.410   4.817   0.290
 3872TP3      O22642   3.164   4.171   9.587
 3872TP3     H122643   3.069   4.184   9.570
 3872TP3     H222644   3.192   4.258   9.619
 3873TP3      O22645   2.918   4.923   0.582
 3873TP3     H122646   2.887   4.884   0.665
 3873TP3     H222647   2.891   5.016   0.589
 3874TP3      O22648   3.229   4.372   9.752
 3874TP3     H122649   3.315   4.356   9.794
 3874TP3     H222650   3.242   4.455   9.703
 3875TP3      O22651   2.285   4.837   0.033
 3875TP3     H122652   2.347   4.825  -0.040
 3875TP3     H222653   2.289   4.752   0.081
 3876TP3      O22654   2.979   5.039   9.685
 3876TP3     H122655   2.937   5.124   9.709
 3876TP3     H222656   2.905   4.976   9.698
 3877TP3      O22657   1.981   4.674   0.558
 3877TP3     H122658   1.993   4.628   0.644
 3877TP3     H222659   1.918   4.616   0.511
 3878TP3      O22660   2.685   4.632   0.774
 3878TP3     H122661   2.650   4.594   0.693
 3878TP3     H222662   2.776   4.596   0.778
 3879TP3      O22663   3.158   5.167   0.580
 3879TP3     H122664   3.071   5.183   0.542
 3879TP3     H222665   3.139   5.196   0.672
 3880TP3      O22666   3.717   4.377   9.728
 3880TP3     H122667   3.660   4.350   9.655
 3880TP3     H222668   3.727   4.472   9.707
 3881TP3      O22669   3.720   4.968   0.689
 3881TP3     H122670   3.630   4.991   0.656
 3881TP3     H222671   3.772   4.963   0.606
 3882TP3      O22672   3.526   5.256   9.760
 3882TP3     H122673   3.512   5.168   9.795
 3882TP3     H222674   3.585   5.241   9.683
 3883TP3      O22675   3.270   4.748   0.162
 3883TP3     H122676   3.177   4.729   0.144
 3883TP3     H222677   3.314   4.675   0.114
 3884TP3      O22678   2.518   5.181  10.093
 3884TP3     H122679   2.564   5.263  10.072
 3884TP3     H222680   2.432   5.195  10.051
 3885TP3      O22681   2.092   4.664   9.538
 3885TP3     H122682   2.153   4.725   9.584
 3885TP3     H222683   2.005   4.686   9.575
 3886TP3      O22684   2.658   4.947  10.029
 3886TP3     H122685   2.627   5.039  10.045
 3886TP3     H222686   2.595   4.896  10.085
 3887TP3      O22687   2.694   5.364   0.387
 3887TP3     H122688   2.745   5.427   0.334
 3887TP3     H222689   2.769   5.309   0.415
 3888TP3      O22690   2.540   5.422   9.976
 3888TP3     H122691   2.445   5.429  10.001
 3888TP3     H222692   2.572   5.505  10.018
 3889TP3      O22693   3.047   4.955   0.321
 3889TP3     H122694   3.025   4.948   0.417
 3889TP3     H222695   3.118   4.891   0.308
 3890TP3      O22696   3.296   5.068   9.557
 3890TP3     H122697   3.319   5.022   9.640
 3890TP3     H222698   3.200   5.052   9.556
 3891TP3      O22699   3.340   5.416   0.570
 3891TP3     H122700   3.265   5.370   0.527
 3891TP3     H222701   3.345   5.494   0.512
 3892TP3      O22702   3.752  -0.040   9.571
 3892TP3     H122703   3.821   0.027   9.564
 3892TP3     H222704   3.669   0.008   9.596
 3893TP3      O22705   2.151   4.146   0.512
 3893TP3     H122706   2.061   4.182   0.513
 3893TP3     H222707   2.140   4.063   0.561
 3894TP3      O22708   3.369   4.928   9.780
 3894TP3     H122709   3.347   4.845   9.826
 3894TP3     H222710   3.464   4.938   9.798
 3895TP3      O22711   2.114   5.316   0.361
 3895TP3     H122712   2.151   5.227   0.360
 3895TP3     H222713   2.140   5.350   0.447
 3896TP3      O22714   2.583   5.131   9.643
 3896TP3     H122715   2.617   5.078   9.717
 3896TP3     H222716   2.593   5.222   9.677
 3897TP3      O22717   2.239   4.855   9.688
 3897TP3     H122718   2.169   4.894   9.744
 3897TP3     H222719   2.285   4.936   9.658
 3898TP3      O22720   3.017   4.126   0.419
 3898TP3     H122721   3.095   4.132   0.476
 3898TP3     H222722   2.986   4.035   0.438
 3899TP3      O22723   3.091   4.079   9.840
 3899TP3     H122724   3.117   4.120   9.756
 3899TP3     H222725   3.151   4.123   9.901
 3900TP3      O22726   2.855   5.297   9.715
 3900TP3     H122727   2.770   5.345   9.714
 3900TP3     H222728   2.913   5.349   9.655
 3901TP3      O22729   2.817   4.253   9.916
 3901TP3     H122730   2.891   4.316   9.922
 3901TP3     H222731   2.787   4.241  10.008
 3902TP3      O22732   2.867   4.359   0.526
 3902TP3     H122733   2.888   4.413   0.605
 3902TP3     H222734   2.938   4.292   0.525
 3903TP3      O22735   2.900   3.958   9.997
 3903TP3     H122736   2.866   4.023  10.060
 3903TP3     H222737   2.974   4.012   9.958
 3904TP3      O22738   2.608   5.408   9.711
 3904TP3     H122739   2.614   5.496   9.673
 3904TP3     H222740   2.572   5.423   9.801
 3905TP3      O22741   2.465   4.069   9.683
 3905TP3     H122742   2.461   4.160   9.717
 3905TP3     H222743   2.556   4.046   9.711
 3906TP3      O22744   3.487   4.144   0.608
 3906TP3     H122745   3.396   4.179   0.592
 3906TP3     H222746   3.519   4.141   0.517
 3907TP3      O22747   3.354   4.524   0.003
 3907TP3     H122748   3.272   4.476  -0.021
 3907TP3     H222749   3.406   4.457   0.053
 3908TP3      O22750   2.291   5.110   9.571
 3908TP3     H122751   2.356   5.168   9.613
 3908TP3     H222752   2.350   5.061   9.510
 3909TP3      O22753   2.130   4.386   9.500
 3909TP3     H122754   2.132   4.483   9.511
 3909TP3     H222755   2.044   4.371   9.460
 3910TP3      O22756   3.458   5.440   0.205
 3910TP3     H122757   3.439   5.487   0.121
 3910TP3     H222758   3.555   5.451   0.202
 3911TP3      O22759   2.207   3.862   0.059
 3911TP3     H122760   2.193   3.862  -0.039
 3911TP3     H222761   2.170   3.773   0.080
 3912TP3      O22762   2.104   5.231   9.977
 3912TP3     H122763   2.018   5.274   9.978
 3912TP3     H222764   2.145   5.289   9.911
 3913TP3      O22765   2.023   5.487   0.787
 3913TP3     H122766   2.084   5.475   0.862
 3913TP3     H222767   1.987   5.397   0.773
 3914TP3      O22768   2.494   5.391   0.960
 3914TP3     H122769   2.583   5.364   0.985
 3914TP3     H222770   2.492   5.368   0.865
 3915TP3      O22771   2.945   5.385   9.484
 3915TP3     H122772   2.868   5.328   9.472
 3915TP3     H222773   3.005   5.345   9.419
 3916TP3      O22774   3.135   5.247   0.838
 3916TP3     H122775   3.106   5.157   0.865
 3916TP3     H222776   3.218   5.260   0.888
 3917TP3      O22777   3.332   5.350   9.442
 3917TP3     H122778   3.355   5.268   9.489
 3917TP3     H222779   3.416   5.357   9.391
 3918TP3      O22780   2.009   4.896   0.895
 3918TP3     H122781   2.024   4.804   0.868
 3918TP3     H222782   1.939   4.924   0.833
 3919TP3      O22783   2.458   4.941   9.432
 3919TP3     H122784   2.462   4.857   9.479
 3919TP3     H222785   2.504   4.919   9.350
 3920TP3      O22786   2.684   4.901   0.833
 3920TP3     H122787   2.651   4.935   0.748
 3920TP3     H222788   2.687   4.803   0.822
 3921TP3      O22789   3.247   4.882   0.573
 3921TP3     H122790   3.331   4.932   0.572
 3921TP3     H222791   3.185   4.958   0.572
 3922TP3      O22792   2.109   4.620   0.836
 3922TP3     H122793   2.153   4.535   0.829
 3922TP3     H222794   2.088   4.624   0.931
 3923TP3      O22795   2.575   4.739   9.662
 3923TP3     H122796   2.515   4.685   9.717
 3923TP3     H222797   2.607   4.672   9.597
 3924TP3      O22798   2.487   4.527   0.568
 3924TP3     H122799   2.422   4.588   0.609
 3924TP3     H222800   2.516   4.587   0.497
 3925TP3      O22801   2.681   4.564   9.473
 3925TP3     H122802   2.677   4.538   9.380
 3925TP3     H222803   2.778   4.564   9.492
 3926TP3      O22804   3.007   4.772   0.905
 3926TP3     H122805   3.100   4.763   0.883
 3926TP3     H222806   2.987   4.694   0.959
 3927TP3      O22807   3.589   4.809   9.423
 3927TP3     H122808   3.584   4.758   9.340
 3927TP3     H222809   3.620   4.897   9.396
 3928TP3      O22810   2.554   4.255   0.665
 3928TP3     H122811   2.544   4.179   0.603
 3928TP3     H222812   2.506   4.329   0.626
 3929TP3      O22813   2.577   4.104   0.432
 3929TP3     H122814   2.629   4.126   0.353
 3929TP3     H222815   2.488   4.083   0.393
 3930TP3      O22816   2.722   4.627   0.440
 3930TP3     H122817   2.810   4.630   0.400
 3930TP3     H222818   2.694   4.720   0.422
 3931TP3      O22819   3.169   4.410   0.943
 3931TP3     H122820   3.196   4.317   0.938
 3931TP3     H222821   3.254   4.457   0.952
 3932TP3      O22822   3.306   4.694   0.771
 3932TP3     H122823   3.279   4.764   0.708
 3932TP3     H222824   3.402   4.691   0.753
 3933TP3      O22825   2.381   4.377   0.865
 3933TP3     H122826   2.304   4.317   0.856
 3933TP3     H222827   2.445   4.336   0.806
 3934TP3      O22828   2.657   3.835   0.464
 3934TP3     H122829   2.633   3.929   0.458
 3934TP3     H222830   2.584   3.794   0.414
 3935TP3      O22831   2.783   4.268   0.835
 3935TP3     H122832   2.753   4.241   0.924
 3935TP3     H222833   2.707   4.239   0.781
 3936TP3      O22834   3.055   4.183   0.747
 3936TP3     H122835   2.959   4.185   0.758
 3936TP3     H222836   3.081   4.118   0.816
 3937TP3      O22837   3.210   4.041   0.927
 3937TP3     H122838   3.211   3.944   0.932
 3937TP3     H222839   3.192   4.071   1.019
 3938TP3      O22840   2.190   4.172   0.845
 3938TP3     H122841   2.210   4.096   0.788
 3938TP3     H222842   2.175   4.130   0.932
 3939TP3      O22843   2.677   3.778   0.736
 3939TP3     H122844   2.744   3.706   0.739
 3939TP3     H222845   2.664   3.783   0.639
 3940TP3      O22846   2.713   3.932   0.956
 3940TP3     H122847   2.694   3.880   0.874
 3940TP3     H222848   2.656   4.011   0.944
 3941TP3      O22849   2.018   5.058   9.536
 3941TP3     H122850   2.109   5.094   9.548
 3941TP3     H222851   2.023   5.028   9.444
 3942TP3      O22852   1.984   5.421  10.211
 3942TP3     H122853   1.930   5.346  10.237
 3942TP3     H222854   2.000   5.461  10.298
 3943TP3      O22855   3.725  -0.006   0.189
 3943TP3     H122856   3.745  -0.007   0.285
 3943TP3     H222857   3.803   0.040   0.157
 3944TP3      O22858   3.719   5.428   0.463
 3944TP3     H122859   3.649   5.362   0.443
 3944TP3     H222860   3.744   5.407   0.554
 3945TP3      O22861   3.532   5.040   0.955
 3945TP3     H122862   3.440   5.044   0.990
 3945TP3     H222863   3.569   5.124   0.990
 3946TP3      O22864   3.666   4.876   9.809
 3946TP3     H122865   3.749   4.923   9.833
 3946TP3     H222866   3.662   4.810   9.881
 3947TP3      O22867   3.697   4.688  10.001
 3947TP3     H122868   3.620   4.640  10.040
 3947TP3     H222869   3.757   4.699  10.077
 3948TP3      O22870   3.674   4.954   0.182
 3948TP3     H122871   3.755   4.916   0.143
 3948TP3     H222872   3.687   5.050   0.167
 3949TP3      O22873   3.522   5.239   0.421
 3949TP3     H122874   3.453   5.287   0.469
 3949TP3     H222875   3.471   5.212   0.341
 3950TP3      O22876   3.728   4.670   9.634
 3950TP3     H122877   3.664   4.704   9.569
 3950TP3     H222878   3.718   4.737   9.705
 3951TP3      O22879   3.513   4.389   9.494
 3951TP3     H122880   3.572   4.450   9.446
 3951TP3     H222881   3.552   4.305   9.467
 3952TP3      O22882   3.479   4.536  10.062
 3952TP3     H122883   3.467   4.440  10.051
 3952TP3     H222884   3.453   4.549  10.156
 3953TP3      O22885   1.984   4.744   0.152
 3953TP3     H122886   1.995   4.733   0.055
 3953TP3     H222887   2.074   4.721   0.183
 3954TP3      O22888   3.572   4.729   0.716
 3954TP3     H122889   3.633   4.653   0.725
 3954TP3     H222890   3.633   4.806   0.713
 3955TP3      O22891   3.719   4.514   0.776
 3955TP3     H122892   3.630   4.477   0.764
 3955TP3     H222893   3.775   4.434   0.772
 3956TP3      O22894   3.446   4.293   9.909
 3956TP3     H122895   3.474   4.198   9.918
 3956TP3     H222896   3.524   4.329   9.864
 3957TP3      O22897   3.514   4.348   0.135
 3957TP3     H122898   3.610   4.369   0.133
 3957TP3     H222899   3.497   4.361   0.229
 3958TP3      O22900   3.522   4.419   0.409
 3958TP3     H122901   3.432   4.446   0.439
 3958TP3     H222902   3.564   4.506   0.388
 3959TP3      O22903   1.952   4.274   0.769
 3959TP3     H122904   2.044   4.247   0.789
 3959TP3     H222905   1.902   4.191   0.787
 3960TP3      O22906   3.751   3.831   0.942
 3960TP3     H122907   3.785   3.763   0.882
 3960TP3     H222908   3.754   3.909   0.883
 3961TP3      O22909   3.516   4.023   9.907
 3961TP3     H122910   3.542   3.982   9.992
 3961TP3     H222911   3.459   3.954   9.866
 3962TP3      O22912   2.066   4.104   0.052
 3962TP3     H122913   2.110   4.018   0.073
 3962TP3     H222914   2.128   4.170   0.086
 3963TP3      O22915   1.893   4.405   0.154
 3963TP3     H122916   1.948   4.376   0.078
 3963TP3     H222917   1.944   4.483   0.179
 3964TP3      O22918   3.697   4.038   0.778
 3964TP3     H122919   3.604   4.068   0.775
 3964TP3     H222920   3.695   3.980   0.700
 3965TP3      O22921   3.697   4.031   9.568
 3965TP3     H122922   3.737   3.959   9.517
 3965TP3     H222923   3.769   4.095   9.568
 3966TP3      O22924   1.926   4.031   9.874
 3966TP3     H122925   1.831   4.046   9.863
 3966TP3     H222926   1.964   4.080   9.799
 3967TP3      O22927   1.923   3.893   0.389
 3967TP3     H122928   1.858   3.872   0.458
 3967TP3     H222929   1.876   3.957   0.334
 3968TP3      O22930   2.150   5.217   0.802
 3968TP3     H122931   2.065   5.228   0.756
 3968TP3     H222932   2.123   5.201   0.893
 3969TP3      O22933   2.429   5.306   0.432
 3969TP3     H122934   2.402   5.396   0.415
 3969TP3     H222935   2.524   5.314   0.405
 3970TP3      O22936   2.897   5.428   0.727
 3970TP3     H122937   2.897   5.418   0.825
 3970TP3     H222938   2.977   5.480   0.714
 3971TP3      O22939   3.603   3.844   0.570
 3971TP3     H122940   3.522   3.877   0.527
 3971TP3     H222941   3.617   3.760   0.521
 3972TP3      O22942   3.129   5.476   0.369
 3972TP3     H122943   3.044   5.485   0.325
 3972TP3     H222944   3.179   5.552   0.336
 3973TP3      O22945   2.113   5.461   0.137
 3973TP3     H122946   2.109   5.431   0.232
 3973TP3     H222947   2.200   5.428   0.105
 3974TP3      O22948   2.323   5.360  -0.009
 3974TP3     H122949   2.319   5.264   0.013
 3974TP3     H222950   2.411   5.383   0.030
 3975TP3      O22951   2.563   5.385   0.093
 3975TP3     H122952   2.607   5.304   0.062
 3975TP3     H222953   2.598   5.395   0.182
 3976TP3      O22954   2.940   3.986  10.306
 3976TP3     H122955   2.872   3.924  10.339
 3976TP3     H222956   2.995   3.929  10.251
 3977TP3      O22957   3.457   3.786  10.308
 3977TP3     H122958   3.514   3.850  10.259
 3977TP3     H222959   3.367   3.823  10.292
 3978TP3      O22960   3.619   3.919  10.138
 3978TP3     H122961   3.686   3.858  10.101
 3978TP3     H222962   3.673   4.000  10.152
 3979TP3      O22963   2.179   3.846  10.100
 3979TP3     H122964   2.100   3.834  10.044
 3979TP3     H222965   2.220   3.758  10.089
 3980TP3      O22966   2.046   3.822   9.657
 3980TP3     H122967   2.106   3.887   9.613
 3980TP3     H222968   2.002   3.876   9.724
 3981TP3      O22969   2.618   3.838  10.075
 3981TP3     H122970   2.708   3.872  10.059
 3981TP3     H222971   2.621   3.819  10.168
 3982TP3      O22972   3.198   3.844  10.233
 3982TP3     H122973   3.188   3.858  10.138
 3982TP3     H222974   3.159   3.754  10.247
 3983TP3      O22975   3.322   3.841   9.798
 3983TP3     H122976   3.248   3.901   9.784
 3983TP3     H222977   3.276   3.759   9.827
 3984TP3      O22978   2.032   5.401   9.791
 3984TP3     H122979   1.971   5.394   9.714
 3984TP3     H222980   2.058   5.493   9.779
 3985TP3      O22981   2.230   4.000   9.523
 3985TP3     H122982   2.292   3.952   9.468
 3985TP3     H222983   2.291   4.056   9.576
 3986TP3      O22984   2.738   4.040   9.757
 3986TP3     H122985   2.768   3.985   9.832
 3986TP3     H222986   2.751   4.128   9.800
 3987TP3      O22987   3.606   5.485   9.895
 3987TP3     H122988   3.581   5.409   9.837
 3987TP3     H222989   3.592   5.559   9.834
 3988TP3      O22990   2.164   3.898   0.720
 3988TP3     H122991   2.118   3.818   0.754
 3988TP3     H222992   2.252   3.890   0.765
 3989TP3      O22993   2.363   3.845   0.896
 3989TP3     H122994   2.452   3.812   0.872
 3989TP3     H222995   2.322   3.762   0.928
 3990TP3      O22996   2.276   5.532   9.479
 3990TP3     H122997   2.206   5.534   9.548
 3990TP3     H222998   2.302   5.440   9.480
 3991TP3      O22999   3.205   3.769   0.906
 3991TP3     H123000   3.212   3.720   0.991
 3991TP3     H223001   3.297   3.763   0.873
 3992TP3      O23002   3.518   5.362   0.772
 3992TP3     H123003   3.447   5.364   0.705
 3992TP3     H223004   3.531   5.458   0.781
 3993TP3      O23005   4.970   4.765  10.078
 3993TP3     H123006   4.967   4.863  10.077
 3993TP3     H223007   4.897   4.743  10.019
 3994TP3      O23008   4.856   4.684   0.111
 3994TP3     H123009   4.860   4.623   0.186
 3994TP3     H223010   4.814   4.630   0.040
 3995TP3      O23011   4.088   4.655   0.267
 3995TP3     H123012   4.098   4.586   0.335
 3995TP3     H223013   4.164   4.712   0.291
 3996TP3      O23014   5.216   4.992  10.258
 3996TP3     H123015   5.189   4.912  10.306
 3996TP3     H223016   5.237   5.051  10.333
 3997TP3      O23017   4.183   5.102   0.107
 3997TP3     H123018   4.154   5.011   0.085
 3997TP3     H223019   4.278   5.086   0.114
 3998TP3      O23020   3.845   4.452   9.983
 3998TP3     H123021   3.802   4.539   9.979
 3998TP3     H223022   3.790   4.399   9.923
 3999TP3      O23023   3.921   4.679  10.203
 3999TP3     H123024   3.952   4.595  10.243
 3999TP3     H223025   3.984   4.694  10.131
 4000TP3      O23026   4.907   5.455  10.294
 4000TP3     H123027   4.983   5.403  10.261
 4000TP3     H223028   4.918   5.450  10.390
 4001TP3      O23029   4.692   4.928   0.168
 4001TP3     H123030   4.724   4.869   0.098
 4001TP3     H223031   4.778   4.945   0.213
 4002TP3      O23032   5.002   4.372   0.197
 4002TP3     H123033   5.032   4.279   0.201
 4002TP3     H223034   5.003   4.385   0.101
 4003TP3      O23035   4.319   4.182  10.227
 4003TP3     H123036   4.335   4.264  10.176
 4003TP3     H223037   4.282   4.124  10.158
 4004TP3      O23038   5.095   4.192  10.073
 4004TP3     H123039   5.163   4.155  10.134
 4004TP3     H223040   5.150   4.252  10.021
 4005TP3      O23041   3.981   4.427  10.301
 4005TP3     H123042   4.047   4.375  10.350
 4005TP3     H223043   3.996   4.393  10.211
 4006TP3      O23044   4.496   4.581  10.241
 4006TP3     H123045   4.567   4.523  10.273
 4006TP3     H223046   4.449   4.518  10.181
 4007TP3      O23047   4.217   4.074   0.316
 4007TP3     H123048   4.187   4.132   0.242
 4007TP3     H223049   4.150   4.097   0.385
 4008TP3      O23050   4.935   5.021   9.984
 4008TP3     H123051   4.916   5.000   9.891
 4008TP3     H223052   4.907   5.114   9.992
 4009TP3      O23053   4.463   4.841   0.334
 4009TP3     H123054   4.395   4.905   0.365
 4009TP3     H223055   4.534   4.900   0.305
 4010TP3      O23056   5.285   4.120  10.258
 4010TP3     H123057   5.248   4.054  10.317
 4010TP3     H223058   5.342   4.170  10.319
 4011TP3      O23059   4.175   4.258   0.123
 4011TP3     H123060   4.235   4.329   0.154
 4011TP3     H223061   4.225   4.221   0.046
 4012TP3      O23062   4.312   5.041   0.422
 4012TP3     H123063   4.306   5.134   0.391
 4012TP3     H223064   4.221   5.030   0.461
 4013TP3      O23065   3.911   4.996   9.817
 4013TP3     H123066   3.899   5.039   9.729
 4013TP3     H223067   3.926   5.074   9.874
 4014TP3      O23068   5.270   5.166   0.188
 4014TP3     H123069   5.173   5.179   0.193
 4014TP3     H223070   5.303   5.255   0.167
 4015TP3      O23071   5.319   3.999   0.310
 4015TP3     H123072   5.237   4.050   0.298
 4015TP3     H223073   5.377   4.047   0.249
 4016TP3      O23074   4.600   3.809   0.061
 4016TP3     H123075   4.583   3.714   0.053
 4016TP3     H223076   4.514   3.841   0.095
 4017TP3      O23077   5.103   5.346  10.147
 4017TP3     H123078   5.142   5.267  10.103
 4017TP3     H223079   5.162   5.417  10.119
 4018TP3      O23080   5.210   5.129   9.999
 4018TP3     H123081   5.183   5.056   9.941
 4018TP3     H223082   5.229   5.084  10.084
 4019TP3      O23083   5.379   4.996   0.549
 4019TP3     H123084   5.404   4.933   0.479
 4019TP3     H223085   5.401   5.080   0.504
 4020TP3      O23086   4.832   4.687   9.823
 4020TP3     H123087   4.768   4.750   9.784
 4020TP3     H223088   4.908   4.697   9.763
 4021TP3      O23089   4.841   4.545   9.545
 4021TP3     H123090   4.916   4.550   9.606
 4021TP3     H223091   4.875   4.482   9.481
 4022TP3      O23092   5.173   4.701   9.917
 4022TP3     H123093   5.105   4.731   9.983
 4022TP3     H223094   5.232   4.649   9.975
 4023TP3      O23095   5.174   4.529   0.517
 4023TP3     H123096   5.164   4.610   0.571
 4023TP3     H223097   5.110   4.551   0.447
 4024TP3      O23098   4.343   4.771  10.115
 4024TP3     H123099   4.312   4.734  10.029
 4024TP3     H223100   4.405   4.702  10.148
 4025TP3      O23101   4.477   5.106   0.071
 4025TP3     H123102   4.479   5.066  -0.017
 4025TP3     H223103   4.556   5.067   0.112
 4026TP3      O23104   4.372   4.647   0.169
 4026TP3     H123105   4.423   4.653   0.085
 4026TP3     H223106   4.416   4.715   0.225
 4027TP3      O23107   5.007   5.206   0.236
 4027TP3     H123108   4.989   5.275   0.300
 4027TP3     H223109   4.988   5.122   0.285
 4028TP3      O23110   4.471   5.097   0.637
 4028TP3     H123111   4.420   5.163   0.689
 4028TP3     H223112   4.410   5.075   0.563
 4029TP3      O23113   5.078   4.628   9.685
 4029TP3     H123114   5.122   4.652   9.770
 4029TP3     H223115   5.115   4.690   9.619
 4030TP3      O23116   4.168   4.709   0.542
 4030TP3     H123117   4.176   4.772   0.615
 4030TP3     H223118   4.072   4.710   0.531
 4031TP3      O23119   4.839   5.297  10.040
 4031TP3     H123120   4.881   5.333  10.119
 4031TP3     H223121   4.784   5.369  10.008
 4032TP3      O23122   4.288   5.297   0.703
 4032TP3     H123123   4.283   5.283   0.606
 4032TP3     H223124   4.199   5.269   0.733
 4033TP3      O23125   5.438   3.797   9.684
 4033TP3     H123126   5.341   3.805   9.695
 4033TP3     H223127   5.461   3.873   9.632
 4034TP3      O23128   4.235   4.672   9.874
 4034TP3     H123129   4.206   4.751   9.823
 4034TP3     H223130   4.172   4.604   9.846
 4035TP3      O23131   3.849   4.920   0.455
 4035TP3     H123132   3.805   4.910   0.369
 4035TP3     H223133   3.862   4.825   0.475
 4036TP3      O23134   3.828   5.195   0.129
 4036TP3     H123135   3.924   5.185   0.121
 4036TP3     H223136   3.819   5.279   0.176
 4037TP3      O23137   4.735   5.217   0.568
 4037TP3     H123138   4.752   5.291   0.632
 4037TP3     H223139   4.656   5.174   0.605
 4038TP3      O23140   4.169   5.433  10.054
 4038TP3     H123141   4.178   5.411  10.150
 4038TP3     H223142   4.075   5.410  10.040
 4039TP3      O23143   5.108   5.519   9.578
 4039TP3     H123144   5.135   5.438   9.528
 4039TP3     H223145   5.082   5.482   9.664
 4040TP3      O23146   5.028   5.465   9.848
 4040TP3     H123147   4.951   5.506   9.888
 4040TP3     H223148   5.064   5.411   9.920
 4041TP3      O23149   5.340   4.414   0.742
 4041TP3     H123150   5.303   4.450   0.661
 4041TP3     H223151   5.371   4.326   0.715
 4042TP3      O23152   4.078   5.053   0.546
 4042TP3     H123153   4.096   5.015   0.634
 4042TP3     H223154   3.991   5.016   0.522
 4043TP3      O23155   4.347   3.902   0.134
 4043TP3     H123156   4.257   3.885   0.100
 4043TP3     H223157   4.330   3.979   0.190
 4044TP3      O23158   4.814   3.862   0.473
 4044TP3     H123159   4.847   3.819   0.553
 4044TP3     H223160   4.715   3.858   0.485
 4045TP3      O23161   5.141   4.249   0.560
 4045TP3     H123162   5.087   4.227   0.639
 4045TP3     H223163   5.124   4.343   0.543
 4046TP3      O23164   5.224   4.738   9.481
 4046TP3     H123165   5.222   4.729   9.385
 4046TP3     H223166   5.309   4.783   9.489
 4047TP3      O23167   4.790   4.136   9.550
 4047TP3     H123168   4.747   4.115   9.635
 4047TP3     H223169   4.781   4.052   9.502
 4048TP3      O23170   4.355   4.398   0.271
 4048TP3     H123171   4.281   4.401   0.334
 4048TP3     H223172   4.351   4.487   0.229
 4049TP3      O23173   4.353   4.401  10.068
 4049TP3     H123174   4.258   4.382  10.056
 4049TP3     H223175   4.387   4.378   9.979
 4050TP3      O23176   4.907   4.458   9.940
 4050TP3     H123177   4.868   4.541   9.906
 4050TP3     H223178   4.974   4.438   9.872
 4051TP3      O23179   4.806   4.481   0.769
 4051TP3     H123180   4.759   4.399   0.800
 4051TP3     H223181   4.891   4.473   0.817
 4052TP3      O23182   5.008   4.409  10.233
 4052TP3     H123183   4.979   4.466  10.160
 4052TP3     H223184   5.017   4.324  10.186
 4053TP3      O23185   4.116   4.415   0.426
 4053TP3     H123186   4.134   4.457   0.512
 4053TP3     H223187   4.075   4.331   0.454
 4054TP3      O23188   4.467   4.205   9.480
 4054TP3     H123189   4.413   4.133   9.521
 4054TP3     H223190   4.415   4.239   9.407
 4055TP3      O23191   3.786   4.124  10.154
 4055TP3     H123192   3.857   4.122  10.222
 4055TP3     H223193   3.830   4.094  10.073
 4056TP3      O23194   3.912   4.202   9.685
 4056TP3     H123195   3.966   4.256   9.625
 4056TP3     H223196   3.846   4.269   9.714
 4057TP3      O23197   4.924   4.565   0.362
 4057TP3     H123198   4.966   4.495   0.307
 4057TP3     H223199   4.877   4.512   0.429
 4058TP3      O23200   4.610   4.168  10.169
 4058TP3     H123201   4.516   4.162  10.194
 4058TP3     H223202   4.656   4.140  10.249
 4059TP3      O23203   4.087   4.318  10.057
 4059TP3     H123204   4.001   4.337  10.013
 4059TP3     H223205   4.115   4.234  10.015
 4060TP3      O23206   4.449   4.327   9.814
 4060TP3     H123207   4.545   4.336   9.830
 4060TP3     H223208   4.427   4.392   9.745
 4061TP3      O23209   5.046   4.087   0.176
 4061TP3     H123210   4.978   4.090   0.247
 4061TP3     H223211   4.993   4.059   0.100
 4062TP3      O23212   4.321   4.447   9.579
 4062TP3     H123213   4.266   4.407   9.509
 4062TP3     H223214   4.405   4.462   9.533
 4063TP3      O23215   4.133   4.897   0.768
 4063TP3     H123216   4.208   4.920   0.827
 4063TP3     H223217   4.059   4.896   0.832
 4064TP3      O23218   4.733   4.437   0.038
 4064TP3     H123219   4.802   4.388  -0.009
 4064TP3     H223220   4.719   4.383   0.117
 4065TP3      O23221   4.233   4.052  10.006
 4065TP3     H123222   4.201   3.960  10.008
 4065TP3     H223223   4.311   4.043   9.950
 4066TP3      O23224   4.598   4.269   0.283
 4066TP3     H123225   4.518   4.324   0.289
 4066TP3     H223226   4.656   4.308   0.351
 4067TP3      O23227   4.658   4.889   9.773
 4067TP3     H123228   4.576   4.843   9.742
 4067TP3     H223229   4.632   4.910   9.866
 4068TP3      O23230   5.378   4.822   0.330
 4068TP3     H123231   5.431   4.857   0.258
 4068TP3     H223232   5.291   4.811   0.288
 4069TP3      O23233   5.052   4.173   9.589
 4069TP3     H123234   4.956   4.181   9.570
 4069TP3     H223235   5.070   4.264   9.620
 4070TP3      O23236   4.807   4.927   0.579
 4070TP3     H123237   4.772   4.878   0.654
 4070TP3     H223238   4.775   5.016   0.593
 4071TP3      O23239   5.111   4.373   9.752
 4071TP3     H123240   5.196   4.357   9.799
 4071TP3     H223241   5.126   4.456   9.705
 4072TP3      O23242   4.169   4.836   0.033
 4072TP3     H123243   4.233   4.824  -0.040
 4072TP3     H223244   4.176   4.752   0.082
 4073TP3      O23245   4.868   5.041   9.687
 4073TP3     H123246   4.823   5.126   9.709
 4073TP3     H223247   4.794   4.977   9.697
 4074TP3      O23248   3.867   4.674   0.559
 4074TP3     H123249   3.879   4.628   0.644
 4074TP3     H223250   3.805   4.616   0.511
 4075TP3      O23251   4.570   4.630   0.772
 4075TP3     H123252   4.534   4.591   0.691
 4075TP3     H223253   4.660   4.593   0.772
 4076TP3      O23254   5.032   5.172   0.572
 4076TP3     H123255   4.939   5.186   0.552
 4076TP3     H223256   5.031   5.195   0.667
 4077TP3      O23257   5.427   5.258   9.757
 4077TP3     H123258   5.397   5.173   9.792
 4077TP3     H223259   5.461   5.238   9.669
 4078TP3      O23260   5.152   4.744   0.168
 4078TP3     H123261   5.058   4.729   0.146
 4078TP3     H223262   5.195   4.674   0.114
 4079TP3      O23263   4.406   5.183  10.098
 4079TP3     H123264   4.450   5.265  10.068
 4079TP3     H223265   4.320   5.193  10.054
 4080TP3      O23266   3.978   4.664   9.538
 4080TP3     H123267   4.038   4.725   9.585
 4080TP3     H223268   3.891   4.686   9.575
 4081TP3      O23269   4.542   4.946  10.028
 4081TP3     H123270   4.511   5.038  10.043
 4081TP3     H223271   4.481   4.895  10.085
 4082TP3      O23272   4.592   5.359   0.359
 4082TP3     H123273   4.633   5.445   0.344
 4082TP3     H223274   4.653   5.318   0.424
 4083TP3      O23275   4.426   5.422   9.976
 4083TP3     H123276   4.331   5.430  10.001
 4083TP3     H223277   4.459   5.505  10.018
 4084TP3      O23278   4.933   4.958   0.323
 4084TP3     H123279   4.911   4.946   0.418
 4084TP3     H223280   4.999   4.888   0.308
 4085TP3      O23281   5.184   5.070   9.559
 4085TP3     H123282   5.203   5.021   9.642
 4085TP3     H223283   5.088   5.055   9.553
 4086TP3      O23284   5.222   5.414   0.569
 4086TP3     H123285   5.149   5.368   0.527
 4086TP3     H223286   5.234   5.492   0.513
 4087TP3      O23287   4.034   4.146   0.513
 4087TP3     H123288   3.944   4.182   0.513
 4087TP3     H223289   4.023   4.062   0.561
 4088TP3      O23290   5.262   4.928   9.778
 4088TP3     H123291   5.230   4.847   9.825
 4088TP3     H223292   5.354   4.935   9.807
 4089TP3      O23293   4.002   5.318   0.361
 4089TP3     H123294   4.036   5.227   0.360
 4089TP3     H223295   4.025   5.349   0.449
 4090TP3      O23296   4.469   5.132   9.644
 4090TP3     H123297   4.502   5.078   9.717
 4090TP3     H223298   4.478   5.223   9.678
 4091TP3      O23299   4.124   4.855   9.687
 4091TP3     H123300   4.054   4.895   9.744
 4091TP3     H223301   4.170   4.936   9.658
 4092TP3      O23302   4.906   4.122   0.418
 4092TP3     H123303   4.980   4.132   0.479
 4092TP3     H223304   4.868   4.035   0.441
 4093TP3      O23305   4.981   4.079   9.842
 4093TP3     H123306   5.004   4.121   9.757
 4093TP3     H223307   5.043   4.124   9.901
 4094TP3      O23308   4.741   5.298   9.716
 4094TP3     H123309   4.655   5.344   9.714
 4094TP3     H223310   4.798   5.349   9.655
 4095TP3      O23311   4.703   4.253   9.916
 4095TP3     H123312   4.777   4.316   9.922
 4095TP3     H223313   4.673   4.241  10.009
 4096TP3      O23314   4.761   4.358   0.522
 4096TP3     H123315   4.769   4.414   0.602
 4096TP3     H223316   4.828   4.289   0.531
 4097TP3      O23317   4.783   3.958   9.996
 4097TP3     H123318   4.750   4.023  10.060
 4097TP3     H223319   4.858   4.011   9.958
 4098TP3      O23320   4.495   5.408   9.711
 4098TP3     H123321   4.495   5.496   9.674
 4098TP3     H223322   4.458   5.422   9.802
 4099TP3      O23323   4.351   4.069   9.682
 4099TP3     H123324   4.347   4.160   9.717
 4099TP3     H223325   4.442   4.046   9.710
 4100TP3      O23326   5.377   4.128   0.598
 4100TP3     H123327   5.289   4.172   0.591
 4100TP3     H223328   5.415   4.155   0.513
 4101TP3      O23329   5.236   4.528   0.003
 4101TP3     H123330   5.155   4.483  -0.026
 4101TP3     H223331   5.277   4.456   0.056
 4102TP3      O23332   4.177   5.110   9.571
 4102TP3     H123333   4.241   5.168   9.613
 4102TP3     H223334   4.235   5.060   9.510
 4103TP3      O23335   4.016   4.385   9.499
 4103TP3     H123336   4.019   4.482   9.511
 4103TP3     H223337   3.929   4.373   9.460
 4104TP3      O23338   5.350   5.431   0.206
 4104TP3     H123339   5.329   5.487   0.126
 4104TP3     H223340   5.444   5.449   0.207
 4105TP3      O23341   4.093   3.861   0.058
 4105TP3     H123342   4.079   3.861  -0.039
 4105TP3     H223343   4.055   3.773   0.081
 4106TP3      O23344   3.990   5.231   9.976
 4106TP3     H123345   3.903   5.274   9.978
 4106TP3     H223346   4.031   5.289   9.911
 4107TP3      O23347   3.905   5.488   0.789
 4107TP3     H123348   3.970   5.475   0.862
 4107TP3     H223349   3.873   5.397   0.773
 4108TP3      O23350   4.379   5.394   0.958
 4108TP3     H123351   4.467   5.365   0.985
 4108TP3     H223352   4.378   5.368   0.864
 4109TP3      O23353   4.831   5.386   9.484
 4109TP3     H123354   4.753   5.329   9.471
 4109TP3     H223355   4.891   5.344   9.420
 4110TP3      O23356   5.021   5.244   0.837
 4110TP3     H123357   4.995   5.154   0.868
 4110TP3     H223358   5.102   5.260   0.889
 4111TP3      O23359   5.213   5.340   9.427
 4111TP3     H123360   5.247   5.270   9.486
 4111TP3     H223361   5.302   5.365   9.392
 4112TP3      O23362   3.893   4.897   0.896
 4112TP3     H123363   3.909   4.805   0.868
 4112TP3     H223364   3.824   4.924   0.833
 4113TP3      O23365   4.343   4.941   9.432
 4113TP3     H123366   4.348   4.857   9.479
 4113TP3     H223367   4.390   4.919   9.350
 4114TP3      O23368   4.569   4.898   0.832
 4114TP3     H123369   4.536   4.933   0.747
 4114TP3     H223370   4.571   4.800   0.818
 4115TP3      O23371   5.132   4.880   0.568
 4115TP3     H123372   5.216   4.931   0.572
 4115TP3     H223373   5.070   4.955   0.574
 4116TP3      O23374   3.995   4.620   0.836
 4116TP3     H123375   4.038   4.534   0.829
 4116TP3     H223376   3.974   4.623   0.930
 4117TP3      O23377   4.460   4.739   9.662
 4117TP3     H123378   4.402   4.685   9.718
 4117TP3     H223379   4.492   4.672   9.597
 4118TP3      O23380   4.380   4.511   0.565
 4118TP3     H123381   4.322   4.585   0.589
 4118TP3     H223382   4.425   4.549   0.488
 4119TP3      O23383   4.567   4.565   9.474
 4119TP3     H123384   4.563   4.537   9.381
 4119TP3     H223385   4.664   4.564   9.492
 4120TP3      O23386   4.892   4.773   0.907
 4120TP3     H123387   4.986   4.762   0.884
 4120TP3     H223388   4.873   4.693   0.959
 4121TP3      O23389   5.488   4.784   9.419
 4121TP3     H123390   5.484   4.746   9.331
 4121TP3     H223391   5.514   4.876   9.404
 4122TP3      O23392   4.426   4.251   0.668
 4122TP3     H123393   4.437   4.182   0.599
 4122TP3     H223394   4.418   4.333   0.615
 4123TP3      O23395   4.464   4.086   0.429
 4123TP3     H123396   4.513   4.135   0.359
 4123TP3     H223397   4.373   4.083   0.392
 4124TP3      O23398   4.614   4.641   0.452
 4124TP3     H123399   4.693   4.626   0.398
 4124TP3     H223400   4.579   4.725   0.416
 4125TP3      O23401   5.053   4.410   0.942
 4125TP3     H123402   5.085   4.319   0.935
 4125TP3     H223403   5.136   4.460   0.947
 4126TP3      O23404   5.184   4.699   0.772
 4126TP3     H123405   5.165   4.770   0.707
 4126TP3     H223406   5.279   4.686   0.753
 4127TP3      O23407   4.269   4.376   0.864
 4127TP3     H123408   4.192   4.317   0.851
 4127TP3     H223409   4.332   4.339   0.800
 4128TP3      O23410   4.542   3.831   0.463
 4128TP3     H123411   4.519   3.927   0.456
 4128TP3     H223412   4.469   3.792   0.413
 4129TP3      O23413   4.670   4.266   0.835
 4129TP3     H123414   4.633   4.241   0.922
 4129TP3     H223415   4.595   4.244   0.777
 4130TP3      O23416   4.941   4.173   0.743
 4130TP3     H123417   4.845   4.190   0.754
 4130TP3     H223418   4.961   4.118   0.820
 4131TP3      O23419   5.101   4.034   0.932
 4131TP3     H123420   5.086   3.938   0.942
 4131TP3     H223421   5.075   4.073   1.018
 4132TP3      O23422   4.077   4.173   0.845
 4132TP3     H123423   4.094   4.096   0.788
 4132TP3     H223424   4.061   4.131   0.932
 4133TP3      O23425   4.562   3.778   0.736
 4133TP3     H123426   4.625   3.703   0.739
 4133TP3     H223427   4.549   3.784   0.639
 4134TP3      O23428   4.600   3.933   0.956
 4134TP3     H123429   4.580   3.881   0.874
 4134TP3     H223430   4.541   4.011   0.945
 4135TP3      O23431   3.904   5.058   9.535
 4135TP3     H123432   3.995   5.094   9.548
 4135TP3     H223433   3.909   5.028   9.444
 4136TP3      O23434   3.872   5.422  10.211
 4136TP3     H123435   3.817   5.347  10.234
 4136TP3     H223436   3.884   5.461  10.299
 4137TP3      O23437   5.414   5.034   0.961
 4137TP3     H123438   5.322   5.046   0.992
 4137TP3     H223439   5.453   5.120   0.984
 4138TP3      O23440   5.411   5.232   0.420
 4138TP3     H123441   5.347   5.290   0.464
 4138TP3     H223442   5.365   5.205   0.338
 4139TP3      O23443   5.457   4.383   9.494
 4139TP3     H123444   5.456   4.455   9.429
 4139TP3     H223445   5.434   4.305   9.443
 4140TP3      O23446   5.356   4.538  10.058
 4140TP3     H123447   5.355   4.441  10.058
 4140TP3     H223448   5.338   4.558  10.152
 4141TP3      O23449   3.869   4.745   0.151
 4141TP3     H123450   3.882   4.733   0.055
 4141TP3     H223451   3.958   4.722   0.183
 4142TP3      O23452   5.449   4.726   0.729
 4142TP3     H123453   5.509   4.651   0.725
 4142TP3     H223454   5.501   4.800   0.692
 4143TP3      O23455   5.329   4.292   9.905
 4143TP3     H123456   5.354   4.200   9.930
 4143TP3     H223457   5.407   4.325   9.860
 4144TP3      O23458   5.351   4.329   0.140
 4144TP3     H123459   5.446   4.348   0.118
 4144TP3     H223460   5.365   4.354   0.233
 4145TP3      O23461   5.404   4.418   0.409
 4145TP3     H123462   5.318   4.449   0.443
 4145TP3     H223463   5.448   4.501   0.386
 4146TP3      O23464   3.834   4.273   0.770
 4146TP3     H123465   3.927   4.248   0.788
 4146TP3     H223466   3.785   4.190   0.788
 4147TP3      O23467   5.348   4.021   9.925
 4147TP3     H123468   5.406   3.978   9.991
 4147TP3     H223469   5.320   3.944   9.869
 4148TP3      O23470   3.952   4.103   0.052
 4148TP3     H123471   3.995   4.019   0.073
 4148TP3     H223472   4.014   4.169   0.085
 4149TP3      O23473   3.778   4.406   0.153
 4149TP3     H123474   3.834   4.376   0.078
 4149TP3     H223475   3.830   4.483   0.179
 4150TP3      O23476   3.812   4.031   9.872
 4150TP3     H123477   3.716   4.046   9.863
 4150TP3     H223478   3.849   4.081   9.797
 4151TP3      O23479   3.809   3.893   0.390
 4151TP3     H123480   3.742   3.872   0.458
 4151TP3     H223481   3.763   3.958   0.334
 4152TP3      O23482   4.035   5.218   0.802
 4152TP3     H123483   3.951   5.228   0.756
 4152TP3     H223484   4.009   5.201   0.893
 4153TP3      O23485   4.318   5.306   0.432
 4153TP3     H123486   4.285   5.394   0.416
 4153TP3     H223487   4.410   5.316   0.400
 4154TP3      O23488   4.784   5.428   0.725
 4154TP3     H123489   4.781   5.417   0.823
 4154TP3     H223490   4.863   5.483   0.717
 4155TP3      O23491   5.450   3.822   0.586
 4155TP3     H123492   5.394   3.878   0.528
 4155TP3     H223493   5.506   3.770   0.525
 4156TP3      O23494   5.012   5.466   0.353
 4156TP3     H123495   4.924   5.500   0.336
 4156TP3     H223496   5.063   5.547   0.345
 4157TP3      O23497   3.998   5.461   0.137
 4157TP3     H123498   3.995   5.431   0.232
 4157TP3     H223499   4.085   5.427   0.104
 4158TP3      O23500   4.209   5.360  -0.009
 4158TP3     H123501   4.206   5.264   0.014
 4158TP3     H223502   4.296   5.384   0.029
 4159TP3      O23503   4.455   5.387   0.088
 4159TP3     H123504   4.488   5.298   0.061
 4159TP3     H223505   4.482   5.393   0.181
 4160TP3      O23506   4.825   3.987  10.307
 4160TP3     H123507   4.758   3.924  10.339
 4160TP3     H223508   4.880   3.930  10.251
 4161TP3      O23509   5.331   3.789  10.327
 4161TP3     H123510   5.392   3.848  10.275
 4161TP3     H223511   5.245   3.822  10.294
 4162TP3      O23512  -0.023   3.919  10.185
 4162TP3     H123513   0.027   3.861  10.123
 4162TP3     H223514   0.016   4.006  10.173
 4163TP3      O23515   4.063   3.847  10.099
 4163TP3     H123516   3.985   3.834  10.043
 4163TP3     H223517   4.105   3.759  10.089
 4164TP3      O23518   3.932   3.822   9.657
 4164TP3     H123519   3.990   3.887   9.613
 4164TP3     H223520   3.888   3.876   9.724
 4165TP3      O23521   4.502   3.839  10.074
 4165TP3     H123522   4.592   3.873  10.058
 4165TP3     H223523   4.506   3.819  10.168
 4166TP3      O23524   5.081   3.842  10.233
 4166TP3     H123525   5.077   3.856  10.137
 4166TP3     H223526   5.043   3.752  10.244
 4167TP3      O23527   5.202   3.838   9.792
 4167TP3     H123528   5.128   3.900   9.786
 4167TP3     H223529   5.158   3.756   9.825
 4168TP3      O23530   3.918   5.401   9.791
 4168TP3     H123531   3.857   5.395   9.715
 4168TP3     H223532   3.944   5.493   9.779
 4169TP3      O23533   4.115   4.000   9.523
 4169TP3     H123534   4.177   3.952   9.468
 4169TP3     H223535   4.176   4.056   9.575
 4170TP3      O23536   4.624   4.040   9.757
 4170TP3     H123537   4.654   3.985   9.832
 4170TP3     H223538   4.637   4.128   9.800
 4171TP3      O23539   5.487   5.497   9.902
 4171TP3     H123540   5.466   5.418   9.849
 4171TP3     H223541   5.484   5.562   9.830
 4172TP3      O23542   4.048   3.904   0.724
 4172TP3     H123543   4.005   3.822   0.756
 4172TP3     H223544   4.137   3.896   0.767
 4173TP3      O23545   4.247   3.845   0.896
 4173TP3     H123546   4.335   3.812   0.870
 4173TP3     H223547   4.210   3.762   0.933
 4174TP3      O23548   4.161   5.532   9.479
 4174TP3     H123549   4.091   5.534   9.548
 4174TP3     H223550   4.187   5.440   9.480
 4175TP3      O23551   5.092   3.760   0.901
 4175TP3     H123552   5.088   3.722   0.993
 4175TP3     H223553   5.188   3.772   0.895
 4176TP3      O23554   5.390   5.370   0.783
 4176TP3     H123555   5.337   5.359   0.702
 4176TP3     H223556   5.415   5.463   0.771
 4177TP3      O23557   1.202   0.992   1.644
 4177TP3     H123558   1.195   1.090   1.650
 4177TP3     H223559   1.126   0.970   1.587
 4178TP3      O23560   1.084   0.913   1.997
 4178TP3     H123561   1.086   0.851   2.072
 4178TP3     H223562   1.042   0.861   1.926
 4179TP3      O23563   0.316   0.883   2.153
 4179TP3     H123564   0.326   0.814   2.222
 4179TP3     H223565   0.392   0.940   2.174
 4180TP3      O23566   1.447   1.209   1.829
 4180TP3     H123567   1.411   1.135   1.880
 4180TP3     H223568   1.457   1.277   1.898
 4181TP3      O23569   0.408   1.332   1.996
 4181TP3     H123570   0.381   1.242   1.969
 4181TP3     H223571   0.502   1.314   2.012
 4182TP3      O23572   0.087   0.697   1.526
 4182TP3     H123573   0.030   0.769   1.557
 4182TP3     H223574   0.026   0.625   1.519
 4183TP3      O23575   0.152   0.905   1.775
 4183TP3     H123576   0.183   0.821   1.813
 4183TP3     H223577   0.218   0.923   1.706
 4184TP3      O23578   1.184   1.735   1.872
 4184TP3     H123579   1.229   1.662   1.822
 4184TP3     H223580   1.128   1.682   1.930
 4185TP3      O23581   0.926   1.163   2.048
 4185TP3     H123582   0.953   1.094   1.986
 4185TP3     H223583   1.007   1.173   2.101
 4186TP3      O23584   1.774   0.319   2.121
 4186TP3     H123585   1.800   0.379   2.193
 4186TP3     H223586   1.833   0.354   2.052
 4187TP3      O23587   1.238   0.605   2.085
 4187TP3     H123588   1.255   0.509   2.089
 4187TP3     H223589   1.229   0.616   1.988
 4188TP3      O23590   0.546   0.416   1.796
 4188TP3     H123591   0.562   0.496   1.742
 4188TP3     H223592   0.516   0.351   1.729
 4189TP3      O23593   1.327   0.412   1.631
 4189TP3     H123594   1.387   0.385   1.703
 4189TP3     H223595   1.379   0.483   1.590
 4190TP3      O23596   0.230   0.666   1.861
 4190TP3     H123597   0.281   0.602   1.914
 4190TP3     H223598   0.233   0.622   1.775
 4191TP3      O23599   0.725   0.809   1.810
 4191TP3     H123600   0.796   0.751   1.843
 4191TP3     H223601   0.677   0.747   1.752
 4192TP3      O23602   1.836   0.473   2.347
 4192TP3     H123603   1.768   0.543   2.332
 4192TP3     H223604   1.823   0.451   2.440
 4193TP3      O23605   0.443   0.306   2.203
 4193TP3     H123606   0.418   0.365   2.128
 4193TP3     H223607   0.370   0.326   2.268
 4194TP3      O23608   1.164   1.249   1.559
 4194TP3     H123609   1.148   1.225   1.467
 4194TP3     H223610   1.138   1.344   1.563
 4195TP3      O23611   0.678   1.080   2.178
 4195TP3     H123612   0.623   1.118   2.250
 4195TP3     H223613   0.760   1.126   2.199
 4196TP3      O23614   1.504   0.371   1.841
 4196TP3     H123615   1.481   0.288   1.884
 4196TP3     H223616   1.575   0.403   1.898
 4197TP3      O23617   0.396   0.490   2.002
 4197TP3     H123618   0.459   0.557   2.039
 4197TP3     H223619   0.452   0.451   1.930
 4198TP3      O23620   0.532   1.279   2.282
 4198TP3     H123621   0.529   1.375   2.276
 4198TP3     H223622   0.461   1.261   2.346
 4199TP3      O23623   0.141   1.226   1.375
 4199TP3     H123624   0.118   1.268   1.291
 4199TP3     H223625   0.156   1.301   1.435
 4200TP3      O23626   1.504   1.397   2.062
 4200TP3     H123627   1.407   1.408   2.076
 4200TP3     H223628   1.531   1.487   2.038
 4201TP3      O23629   1.532   0.220   2.209
 4201TP3     H123630   1.465   0.288   2.190
 4201TP3     H223631   1.608   0.254   2.156
 4202TP3      O23632   0.844   0.068   1.944
 4202TP3     H123633   0.842  -0.029   1.947
 4202TP3     H223634   0.753   0.087   1.975
 4203TP3      O23635   1.334   1.579   1.723
 4203TP3     H123636   1.366   1.501   1.672
 4203TP3     H223637   1.386   1.649   1.679
 4204TP3      O23638   1.454   1.368   1.575
 4204TP3     H123639   1.425   1.299   1.513
 4204TP3     H223640   1.458   1.317   1.658
 4205TP3      O23641   1.611   1.232   2.421
 4205TP3     H123642   1.627   1.157   2.359
 4205TP3     H223643   1.639   1.309   2.369
 4206TP3      O23644   1.065   0.915   1.397
 4206TP3     H123645   0.999   0.977   1.360
 4206TP3     H223646   1.140   0.924   1.335
 4207TP3      O23647   1.070   0.778   1.099
 4207TP3     H123648   1.144   0.784   1.164
 4207TP3     H223649   1.103   0.703   1.049
 4208TP3      O23650   1.804   0.862   2.220
 4208TP3     H123651   1.741   0.936   2.226
 4208TP3     H223652   1.857   0.889   2.144
 4209TP3      O23653   1.415   0.933   1.493
 4209TP3     H123654   1.340   0.960   1.551
 4209TP3     H223655   1.464   0.871   1.550
 4210TP3      O23656   1.402   0.751   2.404
 4210TP3     H123657   1.403   0.834   2.455
 4210TP3     H223658   1.340   0.780   2.334
 4211TP3      O23659   0.576   1.004   1.686
 4211TP3     H123660   0.541   0.966   1.601
 4211TP3     H223661   0.635   0.933   1.719
 4212TP3      O23662   0.708   1.345   1.945
 4212TP3     H123663   0.705   1.289   1.867
 4212TP3     H223664   0.776   1.300   2.000
 4213TP3      O23665   0.599   0.867   2.047
 4213TP3     H123666   0.653   0.881   1.967
 4213TP3     H223667   0.632   0.941   2.103
 4214TP3      O23668   1.249   1.440   2.125
 4214TP3     H123669   1.218   1.498   2.195
 4214TP3     H223670   1.226   1.351   2.161
 4215TP3      O23671   0.714   1.386   2.521
 4215TP3     H123672   0.645   1.418   2.580
 4215TP3     H223673   0.670   1.311   2.474
 4216TP3      O23674   1.301   0.861   1.255
 4216TP3     H123675   1.356   0.876   1.336
 4216TP3     H223676   1.351   0.907   1.183
 4217TP3      O23677   0.388   0.929   2.440
 4217TP3     H123678   0.411   1.002   2.501
 4217TP3     H223679   0.296   0.947   2.417
 4218TP3      O23680   1.076   1.534   1.600
 4218TP3     H123681   1.107   1.559   1.687
 4218TP3     H223682   1.016   1.606   1.576
 4219TP3      O23683   0.509   1.532   2.597
 4219TP3     H123684   0.515   1.511   2.502
 4219TP3     H223685   0.418   1.507   2.619
 4220TP3      O23686   1.640   0.048   1.212
 4220TP3     H123687   1.561   0.056   1.270
 4220TP3     H223688   1.671   0.140   1.201
 4221TP3      O23689   0.468   0.903   1.452
 4221TP3     H123690   0.439   0.980   1.400
 4221TP3     H223691   0.407   0.835   1.421
 4222TP3      O23692   1.784   1.465   1.085
 4222TP3     H123693   1.805   1.559   1.103
 4222TP3     H223694   1.874   1.428   1.091
 4223TP3      O23695   0.099   1.149   2.328
 4223TP3     H123696   0.055   1.140   2.243
 4223TP3     H223697   0.084   1.058   2.361
 4224TP3      O23698   0.069   1.437   1.994
 4224TP3     H123699   0.151   1.394   2.019
 4224TP3     H223700   0.051   1.491   2.072
 4225TP3      O23701   1.870   1.496   2.581
 4225TP3     H123702   1.862   1.400   2.578
 4225TP3     H223703   1.783   1.517   2.624
 4226TP3      O23704   0.974   1.440   2.470
 4226TP3     H123705   0.975   1.525   2.519
 4226TP3     H223706   0.879   1.415   2.482
 4227TP3      O23707   1.020   1.818   1.444
 4227TP3     H123708   1.007   1.814   1.347
 4227TP3     H223709   1.019   1.913   1.464
 4228TP3      O23710   0.381   1.706   1.628
 4228TP3     H123711   0.398   1.667   1.716
 4228TP3     H223712   0.295   1.665   1.606
 4229TP3      O23713   1.326   1.742   1.146
 4229TP3     H123714   1.373   1.667   1.104
 4229TP3     H223715   1.329   1.718   1.240
 4230TP3      O23716   1.294   1.738   1.428
 4230TP3     H123717   1.197   1.744   1.436
 4230TP3     H223718   1.310   1.655   1.477
 4231TP3      O23719   1.598   0.640   2.620
 4231TP3     H123720   1.540   0.683   2.555
 4231TP3     H223721   1.588   0.545   2.599
 4232TP3      O23722   0.311   1.289   2.438
 4232TP3     H123723   0.326   1.242   2.522
 4232TP3     H223724   0.230   1.244   2.405
 4233TP3      O23725   0.590   0.137   2.034
 4233TP3     H123726   0.507   0.118   1.985
 4233TP3     H223727   0.556   0.211   2.087
 4234TP3      O23728   1.039   0.108   2.362
 4234TP3     H123729   1.081   0.060   2.434
 4234TP3     H223730   0.945   0.081   2.372
 4235TP3      O23731   1.362   0.477   2.443
 4235TP3     H123732   1.310   0.458   2.525
 4235TP3     H223733   1.358   0.574   2.435
 4236TP3      O23734   1.443   0.970   1.053
 4236TP3     H123735   1.434   0.948   0.958
 4236TP3     H223736   1.532   1.007   1.049
 4237TP3      O23737   0.999   0.356   1.097
 4237TP3     H123738   0.973   0.340   1.189
 4237TP3     H223739   0.970   0.270   1.060
 4238TP3      O23740   0.583   0.623   2.153
 4238TP3     H123741   0.513   0.630   2.221
 4238TP3     H223742   0.581   0.715   2.116
 4239TP3      O23743   0.580   0.632   1.637
 4239TP3     H123744   0.485   0.610   1.626
 4239TP3     H223745   0.616   0.606   1.550
 4240TP3      O23746   1.137   0.689   1.512
 4240TP3     H123747   1.098   0.772   1.474
 4240TP3     H223748   1.204   0.668   1.445
 4241TP3      O23749   1.039   0.707   2.658
 4241TP3     H123750   0.984   0.632   2.690
 4241TP3     H223751   1.122   0.694   2.706
 4242TP3      O23752   1.239   0.639   1.802
 4242TP3     H123753   1.206   0.696   1.730
 4242TP3     H223754   1.244   0.554   1.755
 4243TP3      O23755   0.336   0.647   2.317
 4243TP3     H123756   0.361   0.682   2.404
 4243TP3     H223757   0.304   0.557   2.338
 4244TP3      O23758   0.678   0.389   0.999
 4244TP3     H123759   0.634   0.347   1.076
 4244TP3     H223760   0.605   0.431   0.952
 4245TP3      O23761   0.036   0.406   1.695
 4245TP3     H123762   0.074   0.379   1.781
 4245TP3     H223763   0.069   0.338   1.634
 4246TP3      O23764   0.141   0.448   1.256
 4246TP3     H123765   0.194   0.497   1.189
 4246TP3     H223766   0.070   0.509   1.271
 4247TP3      O23767   1.151   0.793   2.250
 4247TP3     H123768   1.193   0.722   2.195
 4247TP3     H223769   1.099   0.741   2.315
 4248TP3      O23770   0.841   0.412   1.742
 4248TP3     H123771   0.747   0.390   1.761
 4248TP3     H223772   0.882   0.367   1.818
 4249TP3      O23773   0.316   0.545   1.628
 4249TP3     H123774   0.229   0.565   1.589
 4249TP3     H223775   0.340   0.464   1.580
 4250TP3      O23776   0.680   0.554   1.389
 4250TP3     H123777   0.777   0.562   1.400
 4250TP3     H223778   0.656   0.621   1.323
 4251TP3      O23779   1.280   0.307   2.060
 4251TP3     H123780   1.210   0.321   2.128
 4251TP3     H223781   1.230   0.289   1.979
 4252TP3      O23782   0.553   0.670   1.144
 4252TP3     H123783   0.500   0.631   1.072
 4252TP3     H223784   0.635   0.692   1.097
 4253TP3      O23785   1.598   1.881   2.696
 4253TP3     H123786   1.625   1.911   2.607
 4253TP3     H223787   1.672   1.913   2.749
 4254TP3      O23788   0.374   1.125   2.650
 4254TP3     H123789   0.447   1.147   2.710
 4254TP3     H223790   0.299   1.138   2.710
 4255TP3      O23791   0.964   0.668   1.927
 4255TP3     H123792   1.022   0.613   1.874
 4255TP3     H223793   0.946   0.612   2.004
 4256TP3      O23794   0.466   0.282   1.570
 4256TP3     H123795   0.433   0.191   1.575
 4256TP3     H223796   0.548   0.271   1.519
 4257TP3      O23797   0.829   0.499   2.165
 4257TP3     H123798   0.747   0.551   2.174
 4257TP3     H223799   0.886   0.535   2.236
 4258TP3      O23800   0.886   1.120   1.340
 4258TP3     H123801   0.805   1.076   1.305
 4258TP3     H223802   0.858   1.140   1.432
 4259TP3      O23803   1.612   1.049   2.217
 4259TP3     H123804   1.663   1.098   2.149
 4259TP3     H223805   1.524   1.045   2.174
 4260TP3      O23806   1.264   0.404   1.154
 4260TP3     H123807   1.169   0.422   1.142
 4260TP3     H223808   1.303   0.486   1.191
 4261TP3      O23809   1.046   1.158   2.471
 4261TP3     H123810   0.991   1.105   2.529
 4261TP3     H223811   0.998   1.241   2.470
 4262TP3      O23812   1.345   0.593   1.310
 4262TP3     H123813   1.432   0.579   1.354
 4262TP3     H223814   1.361   0.675   1.261
 4263TP3      O23815   0.401   1.066   1.919
 4263TP3     H123816   0.459   1.057   1.841
 4263TP3     H223817   0.408   0.978   1.961
 4264TP3      O23818   1.093   1.267   1.242
 4264TP3     H123819   1.058   1.352   1.275
 4264TP3     H223820   1.020   1.205   1.266
 4265TP3      O23821   0.110   0.894   2.432
 4265TP3     H123822   0.134   0.858   2.519
 4265TP3     H223823   0.042   0.834   2.400
 4266TP3      O23824   0.801   0.852   2.661
 4266TP3     H123825   0.762   0.834   2.573
 4266TP3     H223826   0.890   0.814   2.651
 4267TP3      O23827   1.270   1.393   2.465
 4267TP3     H123828   1.177   1.405   2.434
 4267TP3     H223829   1.260   1.427   2.555
 4268TP3      O23830   1.830   0.611   1.296
 4268TP3     H123831   1.778   0.585   1.217
 4268TP3     H223832   1.840   0.707   1.277
 4269TP3      O23833   1.833   1.193   2.575
 4269TP3     H123834   1.742   1.214   2.542
 4269TP3     H223835   1.884   1.188   2.491
 4270TP3      O23836   1.654   1.490   1.331
 4270TP3     H123837   1.623   1.407   1.368
 4270TP3     H223838   1.695   1.465   1.247
 4271TP3      O23839   1.384   0.975   2.047
 4271TP3     H123840   1.290   0.954   2.031
 4271TP3     H223841   1.428   0.902   1.998
 4272TP3      O23842   0.635   1.410   1.658
 4272TP3     H123843   0.683   1.491   1.637
 4272TP3     H223844   0.548   1.430   1.622
 4273TP3      O23845   0.212   0.887   1.122
 4273TP3     H123846   0.268   0.957   1.159
 4273TP3     H223847   0.122   0.922   1.132
 4274TP3      O23848   0.772   1.179   1.597
 4274TP3     H123849   0.738   1.268   1.617
 4274TP3     H223850   0.711   1.123   1.650
 4275TP3      O23851   0.819   1.598   2.252
 4275TP3     H123852   0.869   1.675   2.223
 4275TP3     H223853   0.881   1.554   2.313
 4276TP3      O23854   0.645   1.671   1.559
 4276TP3     H123855   0.550   1.685   1.575
 4276TP3     H223856   0.683   1.756   1.588
 4277TP3      O23857   1.172   1.191   2.208
 4277TP3     H123858   1.139   1.173   2.299
 4277TP3     H223859   1.235   1.118   2.193
 4278TP3      O23860   1.413   1.307   1.120
 4278TP3     H123861   1.441   1.257   1.199
 4278TP3     H223862   1.318   1.284   1.123
 4279TP3      O23863   1.457   1.652   2.459
 4279TP3     H123864   1.387   1.600   2.416
 4279TP3     H223865   1.473   1.718   2.388
 4280TP3      O23866   1.853   1.735   1.147
 4280TP3     H123867   1.919   1.802   1.123
 4280TP3     H223868   1.782   1.795   1.177
 4281TP3      O23869   0.257   0.375   2.387
 4281TP3     H123870   0.170   0.414   2.405
 4281TP3     H223871   0.254   0.296   2.443
 4282TP3      O23872   1.484   1.170   1.350
 4282TP3     H123873   1.459   1.085   1.393
 4282TP3     H223874   1.581   1.163   1.355
 4283TP3      O23875   0.228   1.552   2.233
 4283TP3     H123876   0.254   1.458   2.238
 4283TP3     H223877   0.247   1.580   2.323
 4284TP3      O23878   0.824   1.411   0.973
 4284TP3     H123879   0.829   1.336   0.910
 4284TP3     H223880   0.771   1.368   1.044
 4285TP3      O23881   0.692   1.361   1.217
 4285TP3     H123882   0.731   1.309   1.289
 4285TP3     H223883   0.707   1.452   1.249
 4286TP3      O23884   0.352   1.086   1.267
 4286TP3     H123885   0.277   1.127   1.316
 4286TP3     H223886   0.398   1.164   1.232
 4287TP3      O23887   1.141   0.347   2.292
 4287TP3     H123888   1.206   0.357   2.364
 4287TP3     H223889   1.094   0.266   2.321
 4288TP3      O23890   1.223   0.297   1.403
 4288TP3     H123891   1.230   0.353   1.324
 4288TP3     H223892   1.270   0.350   1.470
 4289TP3      O23893   0.978   1.525   1.282
 4289TP3     H123894   0.895   1.577   1.293
 4289TP3     H223895   1.032   1.584   1.229
 4290TP3      O23896   0.938   0.479   1.488
 4290TP3     H123897   1.008   0.546   1.493
 4290TP3     H223898   0.903   0.476   1.580
 4291TP3      O23899   1.003   0.596   2.396
 4291TP3     H123900   0.994   0.644   2.481
 4291TP3     H223901   1.056   0.519   2.419
 4292TP3      O23902   1.014   0.187   1.582
 4292TP3     H123903   0.982   0.255   1.643
 4292TP3     H223904   1.080   0.238   1.531
 4293TP3      O23905   0.721   1.626   1.287
 4293TP3     H123906   0.724   1.706   1.229
 4293TP3     H223907   0.689   1.665   1.372
 4294TP3      O23908   0.581   0.307   1.239
 4294TP3     H123909   0.577   0.394   1.283
 4294TP3     H223910   0.669   0.279   1.271
 4295TP3      O23911   1.605   0.375   2.490
 4295TP3     H123912   1.510   0.395   2.478
 4295TP3     H223913   1.634   0.369   2.398
 4296TP3      O23914   1.469   0.752   1.887
 4296TP3     H123915   1.386   0.706   1.863
 4296TP3     H223916   1.519   0.685   1.938
 4297TP3      O23917   0.407   1.346   1.148
 4297TP3     H123918   0.478   1.402   1.184
 4297TP3     H223919   0.457   1.296   1.080
 4298TP3      O23920   0.237   0.608   1.060
 4298TP3     H123921   0.243   0.702   1.086
 4298TP3     H223922   0.147   0.601   1.027
 4299TP3      O23923   1.569   1.695   2.056
 4299TP3     H123924   1.584   1.749   1.976
 4299TP3     H223925   1.664   1.679   2.079
 4300TP3      O23926   0.348   0.125   1.907
 4300TP3     H123927   0.310   0.119   1.817
 4300TP3     H223928   0.292   0.056   1.948
 4301TP3      O23929   0.218   1.484   1.550
 4301TP3     H123930   0.131   1.522   1.538
 4301TP3     H223931   0.263   1.529   1.477
 4302TP3      O23932   0.144   1.753   2.688
 4302TP3     H123933   0.203   1.721   2.759
 4302TP3     H223934   0.100   1.671   2.661
 4303TP3      O23935   0.596   1.632   2.840
 4303TP3     H123936   0.681   1.600   2.871
 4303TP3     H223937   0.599   1.607   2.745
 4304TP3      O23938   1.025   1.594   0.984
 4304TP3     H123939   0.953   1.528   0.998
 4304TP3     H223940   1.095   1.533   0.955
 4305TP3      O23941   1.248   1.482   2.728
 4305TP3     H123942   1.227   1.388   2.738
 4305TP3     H223943   1.339   1.485   2.760
 4306TP3      O23944   1.478   1.566   0.999
 4306TP3     H123945   1.504   1.488   1.052
 4306TP3     H223946   1.555   1.580   0.943
 4307TP3      O23947   0.140   1.143   2.757
 4307TP3     H123948   0.151   1.046   2.753
 4307TP3     H223949   0.054   1.156   2.715
 4308TP3      O23950   0.562   1.160   0.975
 4308TP3     H123951   0.575   1.087   1.037
 4308TP3     H223952   0.641   1.149   0.919
 4309TP3      O23953   0.824   1.127   2.728
 4309TP3     H123954   0.776   1.155   2.646
 4309TP3     H223955   0.805   1.031   2.716
 4310TP3      O23956   1.109   1.274   0.959
 4310TP3     H123957   1.082   1.277   1.052
 4310TP3     H223958   1.094   1.179   0.941
 4311TP3      O23959   1.367   1.109   2.461
 4311TP3     H123960   1.450   1.162   2.457
 4311TP3     H223961   1.302   1.180   2.462
 4312TP3      O23962   0.204   0.840   2.720
 4312TP3     H123963   0.272   0.771   2.709
 4312TP3     H223964   0.197   0.846   2.818
 4313TP3      O23965   0.686   0.963   1.231
 4313TP3     H123966   0.629   0.908   1.287
 4313TP3     H223967   0.720   0.899   1.165
 4314TP3      O23968   0.606   0.744   2.450
 4314TP3     H123969   0.562   0.823   2.485
 4314TP3     H223970   0.655   0.783   2.375
 4315TP3      O23971   0.792   0.787   1.044
 4315TP3     H123972   0.780   0.782   0.947
 4315TP3     H223973   0.890   0.787   1.054
 4316TP3      O23974   1.719   1.017   0.985
 4316TP3     H123975   1.705   0.982   0.896
 4316TP3     H223976   1.731   1.113   0.967
 4317TP3      O23977   0.661   0.483   2.564
 4317TP3     H123978   0.662   0.416   2.494
 4317TP3     H223979   0.637   0.564   2.516
 4318TP3      O23980   0.697   0.322   2.318
 4318TP3     H123981   0.744   0.369   2.244
 4318TP3     H223982   0.606   0.313   2.281
 4319TP3      O23983   0.843   0.859   2.330
 4319TP3     H123984   0.922   0.857   2.275
 4319TP3     H223985   0.806   0.948   2.316
 4320TP3      O23986   1.285   0.641   2.836
 4320TP3     H123987   1.316   0.549   2.837
 4320TP3     H223988   1.367   0.691   2.828
 4321TP3      O23989   1.418   0.923   2.650
 4321TP3     H123990   1.393   0.994   2.588
 4321TP3     H223991   1.515   0.921   2.637
 4322TP3      O23992   0.768   0.066   2.355
 4322TP3     H123993   0.752   0.163   2.344
 4322TP3     H223994   0.695   0.030   2.304
 4323TP3      O23995   0.897   0.491   2.720
 4323TP3     H123996   0.866   0.468   2.808
 4323TP3     H223997   0.816   0.480   2.665
 4324TP3      O23998   1.169   0.398   2.624
 4324TP3     H123999   1.075   0.412   2.646
 4324TP3     H224000   1.202   0.344   2.699
 4325TP3      O24001   1.325   0.285   2.823
 4325TP3     H124002   1.321   0.187   2.824
 4325TP3     H224003   1.305   0.308   2.915
 4326TP3      O24004   0.299   0.391   2.724
 4326TP3     H124005   0.345   0.322   2.674
 4326TP3     H224006   0.311   0.365   2.816
 4327TP3      O24007   0.761   5.517   2.617
 4327TP3     H124008   0.844   5.469   2.633
 4327TP3     H224009   0.773   5.548   2.525
 4328TP3      O24010   0.838   0.168   2.835
 4328TP3     H124011   0.821   0.109   2.759
 4328TP3     H224012   0.763   0.228   2.829
 4329TP3      O24013   0.774   1.856   1.157
 4329TP3     H124014   0.871   1.859   1.162
 4329TP3     H224015   0.761   1.910   1.077
 4330TP3      O24016   0.135   1.313   1.104
 4330TP3     H124017   0.231   1.326   1.120
 4330TP3     H224018   0.138   1.255   1.025
 4331TP3      O24019   5.579   1.848   1.593
 4331TP3     H124020   5.500   1.815   1.546
 4331TP3     H224021   5.582   1.782   1.665
 4332TP3      O24022   0.089   1.667   1.784
 4332TP3     H124023   0.062   1.576   1.804
 4332TP3     H224024   0.127   1.694   1.870
 4333TP3      O24025   1.838   1.754   2.077
 4333TP3     H124026   1.854   1.755   2.173
 4333TP3     H224027   1.916   1.801   2.046
 4334TP3      O24028   1.800   1.704   2.364
 4334TP3     H124029   1.755   1.624   2.330
 4334TP3     H224030   1.844   1.664   2.440
 4335TP3      O24031   1.649   1.270   2.845
 4335TP3     H124032   1.558   1.273   2.877
 4335TP3     H224033   1.687   1.354   2.880
 4336TP3      O24034   1.779   1.109   1.377
 4336TP3     H124035   1.866   1.149   1.397
 4336TP3     H224036   1.775   1.041   1.447
 4337TP3      O24037   1.811   0.922   1.573
 4337TP3     H124038   1.735   0.870   1.607
 4337TP3     H224039   1.872   0.926   1.649
 4338TP3      O24040   1.788   1.183   2.066
 4338TP3     H124041   1.867   1.141   2.028
 4338TP3     H224042   1.807   1.278   2.051
 4339TP3      O24043   1.647   1.477   2.288
 4339TP3     H124044   1.579   1.505   2.352
 4339TP3     H224045   1.593   1.434   2.219
 4340TP3      O24046   1.846   0.901   1.207
 4340TP3     H124047   1.784   0.928   1.138
 4340TP3     H224048   1.829   0.971   1.273
 4341TP3      O24049   1.605   0.642   1.094
 4341TP3     H124050   1.670   0.696   1.043
 4341TP3     H224051   1.640   0.559   1.054
 4342TP3      O24052   1.596   0.765   1.633
 4342TP3     H124053   1.581   0.670   1.622
 4342TP3     H224054   1.568   0.780   1.726
 4343TP3      O24055   0.091   0.960   2.037
 4343TP3     H124056   0.106   0.966   1.940
 4343TP3     H224057   0.183   0.948   2.068
 4344TP3      O24058   1.682   0.962   2.592
 4344TP3     H124059   1.740   0.885   2.613
 4344TP3     H224060   1.742   1.038   2.605
 4345TP3      O24061   1.837   0.748   2.655
 4345TP3     H124062   1.746   0.711   2.649
 4345TP3     H224063   1.889   0.665   2.655
 4346TP3      O24064   1.591   0.324   0.972
 4346TP3     H124065   1.658   0.321   1.041
 4346TP3     H224066   1.506   0.304   1.012
 4347TP3      O24067   1.557   0.531   1.468
 4347TP3     H124068   1.581   0.436   1.485
 4347TP3     H224069   1.642   0.564   1.437
 4348TP3      O24070   1.628   0.577   2.020
 4348TP3     H124071   1.724   0.601   2.018
 4348TP3     H224072   1.612   0.588   2.116
 4349TP3      O24073   1.633   0.650   2.289
 4349TP3     H124074   1.548   0.678   2.330
 4349TP3     H224075   1.679   0.736   2.273
 4350TP3      O24076   0.072   0.498   2.644
 4350TP3     H124077   0.164   0.472   2.668
 4350TP3     H224078   0.023   0.417   2.662
 4351TP3      O24079   1.813   0.066   2.812
 4351TP3     H124080   1.879  -0.002   2.785
 4351TP3     H224081   1.852   0.142   2.765
 4352TP3      O24082   1.628   0.270   1.477
 4352TP3     H124083   1.654   0.220   1.558
 4352TP3     H224084   1.568   0.203   1.435
 4353TP3      O24085   0.165   0.334   1.936
 4353TP3     H124086   0.221   0.256   1.951
 4353TP3     H224087   0.226   0.402   1.969
 4354TP3      O24088   0.059   0.633   2.060
 4354TP3     H124089   0.101   0.620   1.972
 4354TP3     H224090   0.072   0.730   2.065
 4355TP3      O24091   1.821   0.273   2.651
 4355TP3     H124092   1.726   0.297   2.661
 4355TP3     H224093   1.806   0.202   2.586
 4356TP3      O24094   1.821   0.252   1.150
 4356TP3     H124095   1.836   0.196   1.070
 4356TP3     H224096   1.871   0.333   1.127
 4357TP3      O24097   0.075   0.256   1.432
 4357TP3     H124098  -0.021   0.277   1.437
 4357TP3     H224099   0.108   0.322   1.367
 4358TP3      O24100   1.521   1.751   1.646
 4358TP3     H124101   1.585   1.723   1.577
 4358TP3     H224102   1.575   1.806   1.703
 4359TP3      O24103   0.055   0.121   2.247
 4359TP3     H124104   0.007   0.117   2.331
 4359TP3     H224105   0.003   0.190   2.204
 4360TP3      O24106   0.256   1.460   2.690
 4360TP3     H124107   0.173   1.463   2.643
 4360TP3     H224108   0.231   1.423   2.773
 4361TP3      O24109   0.547   1.548   2.315
 4361TP3     H124110   0.524   1.640   2.294
 4361TP3     H224111   0.642   1.546   2.293
 4362TP3      O24112   0.987   1.687   2.605
 4362TP3     H124113   0.995   1.659   2.699
 4362TP3     H224114   1.077   1.721   2.587
 4363TP3      O24115   1.216   1.810   2.540
 4363TP3     H124116   1.292   1.757   2.514
 4363TP3     H224117   1.251   1.861   2.615
 4364TP3      O24118   1.666   0.079   2.469
 4364TP3     H124119   1.613   0.130   2.406
 4364TP3     H224120   1.717   0.020   2.409
 4365TP3      O24121   0.289   1.870   2.319
 4365TP3     H124122   0.218   1.920   2.274
 4365TP3     H224123   0.259   1.854   2.409
 4366TP3      O24124   0.543   1.829   2.227
 4366TP3     H124125   0.454   1.842   2.265
 4366TP3     H224126   0.538   1.884   2.147
 4367TP3      O24127   1.019   1.816   2.134
 4367TP3     H124128   0.961   1.869   2.077
 4367TP3     H224129   1.025   1.873   2.214
 4368TP3      O24130   1.242   1.692   2.241
 4368TP3     H124131   1.155   1.723   2.212
 4368TP3     H224132   1.289   1.775   2.258
 4369TP3      O24133   1.480   1.853   2.256
 4369TP3     H124134   1.504   1.948   2.242
 4369TP3     H224135   1.532   1.809   2.185
 4370TP3      O24136   0.241   1.732   2.003
 4370TP3     H124137   0.232   1.690   2.090
 4370TP3     H224138   0.322   1.689   1.969
 4371TP3      O24139   0.446   1.599   1.879
 4371TP3     H124140   0.435   1.506   1.906
 4371TP3     H224141   0.532   1.620   1.921
 4372TP3      O24142   0.711   1.648   1.967
 4372TP3     H124143   0.724   1.554   1.942
 4372TP3     H224144   0.715   1.642   2.063
 4373TP3      O24145   1.059   0.222   1.880
 4373TP3     H124146   0.990   0.159   1.910
 4373TP3     H224147   1.114   0.163   1.826
 4374TP3      O24148   1.559   0.029   1.858
 4374TP3     H124149   1.626   0.088   1.818
 4374TP3     H224150   1.474   0.073   1.837
 4375TP3      O24151   1.744   0.154   1.712
 4375TP3     H124152   1.800   0.087   1.669
 4375TP3     H224153   1.800   0.234   1.718
 4376TP3      O24154   0.251   0.115   1.661
 4376TP3     H124155   0.199   0.074   1.590
 4376TP3     H224156   0.319   0.044   1.672
 4377TP3      O24157   0.175   0.100   1.230
 4377TP3     H124158   0.212   0.164   1.166
 4377TP3     H224159   0.119   0.153   1.289
 4378TP3      O24160   0.743   0.103   1.662
 4378TP3     H124161   0.837   0.118   1.642
 4378TP3     H224162   0.749   0.054   1.745
 4379TP3      O24163   1.326   0.096   1.778
 4379TP3     H124164   1.298   0.104   1.687
 4379TP3     H224165   1.287   0.011   1.808
 4380TP3      O24166   1.450   0.107   1.378
 4380TP3     H124167   1.364   0.144   1.353
 4380TP3     H224168   1.419   0.016   1.395
 4381TP3      O24169   0.170   1.655   1.329
 4381TP3     H124170   0.098   1.649   1.264
 4381TP3     H224171   0.166   1.749   1.352
 4382TP3      O24172   0.352   0.246   1.085
 4382TP3     H124173   0.400   0.187   1.025
 4382TP3     H224174   0.422   0.270   1.149
 4383TP3      O24175   0.836   0.271   1.338
 4383TP3     H124176   0.886   0.217   1.402
 4383TP3     H224177   0.860   0.361   1.371
 4384TP3      O24178   1.049   1.784   1.170
 4384TP3     H124179   1.143   1.796   1.149
 4384TP3     H224180   1.026   1.725   1.095
 4385TP3      O24181   1.709   1.724   1.449
 4385TP3     H124182   1.693   1.646   1.392
 4385TP3     H224183   1.704   1.798   1.384
 4386TP3      O24184   0.302   0.145   2.583
 4386TP3     H124185   0.237   0.085   2.625
 4386TP3     H224186   0.377   0.130   2.645
 4387TP3      O24187   0.473   0.070   2.767
 4387TP3     H124188   0.569   0.058   2.757
 4387TP3     H224189   0.460  -0.009   2.821
 4388TP3      O24190   0.337   1.743   1.030
 4388TP3     H124191   0.310   1.772   1.119
 4388TP3     H224192   0.421   1.695   1.049
 4389TP3      O24193   1.327   5.531   2.764
 4389TP3     H124194   1.321   5.506   2.857
 4389TP3     H224195   1.422   5.524   2.745
 4390TP3      O24196   1.637   1.608   2.655
 4390TP3     H124197   1.563   1.593   2.593
 4390TP3     H224198   1.628   1.704   2.669
 4391TP3      O24199   3.088   0.993   1.643
 4391TP3     H124200   3.080   1.090   1.650
 4391TP3     H224201   3.012   0.970   1.588
 4392TP3      O24202   2.971   0.913   1.996
 4392TP3     H124203   2.972   0.853   2.073
 4392TP3     H224204   2.927   0.861   1.927
 4393TP3      O24205   2.205   0.889   2.152
 4393TP3     H124206   2.213   0.818   2.219
 4393TP3     H224207   2.282   0.943   2.176
 4394TP3      O24208   3.333   1.212   1.830
 4394TP3     H124209   3.297   1.138   1.881
 4394TP3     H224210   3.342   1.281   1.898
 4395TP3      O24211   2.297   1.333   1.996
 4395TP3     H124212   2.268   1.243   1.971
 4395TP3     H224213   2.392   1.316   2.002
 4396TP3      O24214   1.960   0.683   1.549
 4396TP3     H124215   1.913   0.768   1.546
 4396TP3     H224216   1.905   0.627   1.493
 4397TP3      O24217   2.036   0.909   1.774
 4397TP3     H124218   2.066   0.824   1.812
 4397TP3     H224219   2.097   0.922   1.700
 4398TP3      O24220   3.054   1.734   1.858
 4398TP3     H124221   3.114   1.664   1.821
 4398TP3     H224222   3.020   1.685   1.934
 4399TP3      O24223   2.808   1.155   2.052
 4399TP3     H124224   2.839   1.094   1.983
 4399TP3     H224225   2.892   1.172   2.098
 4400TP3      O24226   3.661   0.317   2.121
 4400TP3     H124227   3.685   0.379   2.194
 4400TP3     H224228   3.720   0.353   2.052
 4401TP3      O24229   3.124   0.603   2.085
 4401TP3     H124230   3.142   0.508   2.087
 4401TP3     H224231   3.114   0.616   1.988
 4402TP3      O24232   2.433   0.416   1.798
 4402TP3     H124233   2.449   0.496   1.742
 4402TP3     H224234   2.402   0.351   1.731
 4403TP3      O24235   3.212   0.411   1.631
 4403TP3     H124236   3.272   0.384   1.704
 4403TP3     H224237   3.263   0.482   1.591
 4404TP3      O24238   2.096   0.658   1.874
 4404TP3     H124239   2.162   0.605   1.922
 4404TP3     H224240   2.110   0.625   1.784
 4405TP3      O24241   2.610   0.810   1.812
 4405TP3     H124242   2.682   0.751   1.842
 4405TP3     H224243   2.563   0.748   1.752
 4406TP3      O24244   3.712   0.468   2.342
 4406TP3     H124245   3.651   0.545   2.335
 4406TP3     H224246   3.714   0.453   2.438
 4407TP3      O24247   2.330   0.315   2.209
 4407TP3     H124248   2.302   0.362   2.127
 4407TP3     H224249   2.248   0.320   2.263
 4408TP3      O24250   3.051   1.249   1.558
 4408TP3     H124251   3.033   1.226   1.466
 4408TP3     H224252   3.023   1.343   1.563
 4409TP3      O24253   2.576   1.066   2.221
 4409TP3     H124254   2.509   1.132   2.250
 4409TP3     H224255   2.648   1.125   2.191
 4410TP3      O24256   3.390   0.371   1.841
 4410TP3     H124257   3.367   0.288   1.884
 4410TP3     H224258   3.462   0.403   1.899
 4411TP3      O24259   2.288   0.491   2.007
 4411TP3     H124260   2.351   0.560   2.036
 4411TP3     H224261   2.337   0.453   1.930
 4412TP3      O24262   2.425   1.270   2.306
 4412TP3     H124263   2.418   1.362   2.276
 4412TP3     H224264   2.337   1.261   2.351
 4413TP3      O24265   2.032   1.224   1.383
 4413TP3     H124266   2.009   1.267   1.298
 4413TP3     H224267   2.041   1.301   1.442
 4414TP3      O24268   3.390   1.398   2.062
 4414TP3     H124269   3.293   1.410   2.075
 4414TP3     H224270   3.416   1.489   2.038
 4415TP3      O24271   3.419   0.220   2.211
 4415TP3     H124272   3.352   0.286   2.189
 4415TP3     H224273   3.494   0.253   2.158
 4416TP3      O24274   2.729   0.068   1.943
 4416TP3     H124275   2.728  -0.029   1.946
 4416TP3     H224276   2.638   0.086   1.976
 4417TP3      O24277   3.217   1.579   1.723
 4417TP3     H124278   3.253   1.503   1.673
 4417TP3     H224279   3.272   1.651   1.683
 4418TP3      O24280   3.340   1.367   1.576
 4418TP3     H124281   3.309   1.300   1.513
 4418TP3     H224282   3.344   1.315   1.658
 4419TP3      O24283   3.495   1.230   2.423
 4419TP3     H124284   3.514   1.158   2.358
 4419TP3     H224285   3.522   1.309   2.372
 4420TP3      O24286   2.948   0.913   1.396
 4420TP3     H124287   2.884   0.977   1.360
 4420TP3     H224288   3.024   0.924   1.336
 4421TP3      O24289   2.961   0.777   1.098
 4421TP3     H124290   3.033   0.782   1.164
 4421TP3     H224291   2.991   0.699   1.049
 4422TP3      O24292   3.690   0.862   2.224
 4422TP3     H124293   3.627   0.936   2.226
 4422TP3     H224294   3.744   0.886   2.147
 4423TP3      O24295   3.301   0.933   1.493
 4423TP3     H124296   3.225   0.959   1.552
 4423TP3     H224297   3.350   0.870   1.550
 4424TP3      O24298   3.288   0.752   2.406
 4424TP3     H124299   3.288   0.835   2.457
 4424TP3     H224300   3.228   0.780   2.335
 4425TP3      O24301   2.457   1.002   1.684
 4425TP3     H124302   2.426   0.963   1.599
 4425TP3     H224303   2.519   0.934   1.717
 4426TP3      O24304   2.588   1.338   1.952
 4426TP3     H124305   2.590   1.292   1.867
 4426TP3     H224306   2.668   1.303   1.996
 4427TP3      O24307   2.487   0.875   2.054
 4427TP3     H124308   2.538   0.883   1.970
 4427TP3     H224309   2.529   0.943   2.110
 4428TP3      O24310   3.135   1.436   2.123
 4428TP3     H124311   3.107   1.500   2.190
 4428TP3     H224312   3.109   1.351   2.164
 4429TP3      O24313   2.584   1.316   2.523
 4429TP3     H124314   2.539   1.390   2.569
 4429TP3     H224315   2.520   1.297   2.451
 4430TP3      O24316   3.188   0.860   1.256
 4430TP3     H124317   3.242   0.878   1.337
 4430TP3     H224318   3.236   0.908   1.185
 4431TP3      O24319   2.279   0.927   2.434
 4431TP3     H124320   2.290   0.996   2.502
 4431TP3     H224321   2.185   0.940   2.413
 4432TP3      O24322   2.954   1.528   1.604
 4432TP3     H124323   2.995   1.558   1.685
 4432TP3     H224324   2.902   1.605   1.577
 4433TP3      O24325   2.411   1.511   2.587
 4433TP3     H124326   2.398   1.513   2.491
 4433TP3     H224327   2.321   1.504   2.622
 4434TP3      O24328   3.525   0.049   1.211
 4434TP3     H124329   3.448   0.055   1.271
 4434TP3     H224330   3.556   0.141   1.204
 4435TP3      O24331   2.350   0.902   1.452
 4435TP3     H124332   2.323   0.980   1.398
 4435TP3     H224333   2.290   0.834   1.420
 4436TP3      O24334   3.669   1.465   1.085
 4436TP3     H124335   3.690   1.559   1.103
 4436TP3     H224336   3.759   1.428   1.091
 4437TP3      O24337   1.964   1.148   2.340
 4437TP3     H124338   1.919   1.139   2.254
 4437TP3     H224339   1.974   1.052   2.360
 4438TP3      O24340   1.938   1.420   2.016
 4438TP3     H124341   2.033   1.408   2.012
 4438TP3     H224342   1.933   1.504   2.064
 4439TP3      O24343   3.761   1.493   2.578
 4439TP3     H124344   3.750   1.396   2.582
 4439TP3     H224345   3.679   1.520   2.624
 4440TP3      O24346   2.858   1.446   2.470
 4440TP3     H124347   2.862   1.530   2.521
 4440TP3     H224348   2.774   1.406   2.496
 4441TP3      O24349   2.906   1.818   1.444
 4441TP3     H124350   2.892   1.814   1.348
 4441TP3     H224351   2.903   1.914   1.462
 4442TP3      O24352   2.267   1.707   1.631
 4442TP3     H124353   2.283   1.666   1.719
 4442TP3     H224354   2.182   1.666   1.608
 4443TP3      O24355   3.211   1.743   1.145
 4443TP3     H124356   3.259   1.668   1.103
 4443TP3     H224357   3.214   1.720   1.240
 4444TP3      O24358   3.180   1.736   1.423
 4444TP3     H124359   3.083   1.745   1.436
 4444TP3     H224360   3.198   1.659   1.480
 4445TP3      O24361   3.480   0.644   2.615
 4445TP3     H124362   3.420   0.682   2.550
 4445TP3     H224363   3.471   0.548   2.601
 4446TP3      O24364   2.190   1.276   2.425
 4446TP3     H124365   2.210   1.243   2.515
 4446TP3     H224366   2.102   1.237   2.407
 4447TP3      O24367   2.472   0.131   2.045
 4447TP3     H124368   2.393   0.117   1.988
 4447TP3     H224369   2.446   0.215   2.083
 4448TP3      O24370   2.925   0.103   2.358
 4448TP3     H124371   2.966   0.062   2.433
 4448TP3     H224372   2.830   0.080   2.371
 4449TP3      O24373   3.249   0.477   2.442
 4449TP3     H124374   3.195   0.455   2.522
 4449TP3     H224375   3.241   0.574   2.431
 4450TP3      O24376   3.331   0.968   1.054
 4450TP3     H124377   3.321   0.947   0.958
 4450TP3     H224378   3.418   1.010   1.050
 4451TP3      O24379   2.886   0.355   1.097
 4451TP3     H124380   2.859   0.340   1.189
 4451TP3     H224381   2.857   0.270   1.059
 4452TP3      O24382   2.469   0.627   2.158
 4452TP3     H124383   2.392   0.632   2.217
 4452TP3     H224384   2.467   0.715   2.113
 4453TP3      O24385   2.468   0.630   1.638
 4453TP3     H124386   2.372   0.609   1.627
 4453TP3     H224387   2.502   0.606   1.549
 4454TP3      O24388   3.021   0.690   1.513
 4454TP3     H124389   2.983   0.772   1.474
 4454TP3     H224390   3.088   0.667   1.446
 4455TP3      O24391   2.929   0.706   2.651
 4455TP3     H124392   2.876   0.630   2.684
 4455TP3     H224393   3.009   0.702   2.707
 4456TP3      O24394   3.125   0.639   1.802
 4456TP3     H124395   3.092   0.696   1.730
 4456TP3     H224396   3.129   0.554   1.755
 4457TP3      O24397   2.237   0.642   2.317
 4457TP3     H124398   2.242   0.694   2.400
 4457TP3     H224399   2.176   0.570   2.339
 4458TP3      O24400   2.563   0.388   0.999
 4458TP3     H124401   2.518   0.347   1.076
 4458TP3     H224402   2.491   0.432   0.953
 4459TP3      O24403   1.902   0.370   1.719
 4459TP3     H124404   1.966   0.361   1.792
 4459TP3     H224405   1.946   0.325   1.645
 4460TP3      O24406   2.029   0.439   1.265
 4460TP3     H124407   2.073   0.488   1.193
 4460TP3     H224408   1.956   0.501   1.284
 4461TP3      O24409   3.037   0.791   2.248
 4461TP3     H124410   3.080   0.721   2.193
 4461TP3     H224411   2.989   0.740   2.316
 4462TP3      O24412   2.726   0.414   1.745
 4462TP3     H124413   2.633   0.388   1.761
 4462TP3     H224414   2.768   0.367   1.819
 4463TP3      O24415   2.201   0.547   1.628
 4463TP3     H124416   2.115   0.564   1.584
 4463TP3     H224417   2.230   0.465   1.582
 4464TP3      O24418   2.566   0.554   1.389
 4464TP3     H124419   2.662   0.562   1.400
 4464TP3     H224420   2.542   0.622   1.323
 4465TP3      O24421   3.166   0.306   2.061
 4465TP3     H124422   3.096   0.321   2.128
 4465TP3     H224423   3.116   0.288   1.980
 4466TP3      O24424   2.439   0.670   1.146
 4466TP3     H124425   2.387   0.628   1.075
 4466TP3     H224426   2.521   0.692   1.097
 4467TP3      O24427   3.476   1.878   2.696
 4467TP3     H124428   3.508   1.920   2.614
 4467TP3     H224429   3.547   1.908   2.758
 4468TP3      O24430   2.250   1.125   2.655
 4468TP3     H124431   2.319   1.160   2.714
 4468TP3     H224432   2.171   1.130   2.712
 4469TP3      O24433   2.850   0.669   1.926
 4469TP3     H124434   2.908   0.614   1.873
 4469TP3     H224435   2.833   0.613   2.002
 4470TP3      O24436   2.351   0.283   1.573
 4470TP3     H124437   2.314   0.193   1.577
 4470TP3     H224438   2.428   0.270   1.517
 4471TP3      O24439   2.710   0.494   2.171
 4471TP3     H124440   2.633   0.554   2.172
 4471TP3     H224441   2.772   0.536   2.233
 4472TP3      O24442   2.772   1.120   1.340
 4472TP3     H124443   2.691   1.076   1.305
 4472TP3     H224444   2.744   1.140   1.432
 4473TP3      O24445   3.498   1.049   2.218
 4473TP3     H124446   3.549   1.098   2.151
 4473TP3     H224447   3.410   1.044   2.175
 4474TP3      O24448   3.151   0.404   1.152
 4474TP3     H124449   3.055   0.421   1.141
 4474TP3     H224450   3.188   0.484   1.192
 4475TP3      O24451   2.923   1.156   2.462
 4475TP3     H124452   2.889   1.106   2.537
 4475TP3     H224453   2.888   1.245   2.478
 4476TP3      O24454   3.229   0.592   1.311
 4476TP3     H124455   3.314   0.580   1.359
 4476TP3     H224456   3.244   0.678   1.266
 4477TP3      O24457   2.286   1.066   1.918
 4477TP3     H124458   2.346   1.054   1.842
 4477TP3     H224459   2.291   0.980   1.965
 4478TP3      O24460   2.978   1.268   1.242
 4478TP3     H124461   2.944   1.353   1.276
 4478TP3     H224462   2.906   1.206   1.266
 4479TP3      O24463   1.980   0.902   2.441
 4479TP3     H124464   1.992   0.857   2.527
 4479TP3     H224465   1.917   0.842   2.397
 4480TP3      O24466   2.681   0.858   2.659
 4480TP3     H124467   2.652   0.823   2.574
 4480TP3     H224468   2.771   0.820   2.664
 4481TP3      O24469   3.157   1.392   2.463
 4481TP3     H124470   3.066   1.408   2.433
 4481TP3     H224471   3.147   1.425   2.554
 4482TP3      O24472   3.714   0.612   1.295
 4482TP3     H124473   3.661   0.588   1.217
 4482TP3     H224474   3.725   0.708   1.276
 4483TP3      O24475   3.717   1.193   2.571
 4483TP3     H124476   3.628   1.215   2.533
 4483TP3     H224477   3.772   1.187   2.489
 4484TP3      O24478   3.540   1.490   1.331
 4484TP3     H124479   3.509   1.407   1.368
 4484TP3     H224480   3.580   1.465   1.246
 4485TP3      O24481   3.271   0.975   2.047
 4485TP3     H124482   3.177   0.957   2.030
 4485TP3     H224483   3.314   0.902   1.998
 4486TP3      O24484   2.522   1.410   1.658
 4486TP3     H124485   2.570   1.492   1.637
 4486TP3     H224486   2.434   1.430   1.623
 4487TP3      O24487   2.102   0.892   1.114
 4487TP3     H124488   2.156   0.960   1.157
 4487TP3     H224489   2.010   0.918   1.136
 4488TP3      O24490   2.658   1.176   1.602
 4488TP3     H124491   2.623   1.267   1.616
 4488TP3     H224492   2.594   1.122   1.652
 4489TP3      O24493   2.707   1.593   2.253
 4489TP3     H124494   2.756   1.671   2.223
 4489TP3     H224495   2.769   1.555   2.317
 4490TP3      O24496   2.532   1.673   1.560
 4490TP3     H124497   2.436   1.687   1.575
 4490TP3     H224498   2.568   1.758   1.589
 4491TP3      O24499   3.051   1.188   2.207
 4491TP3     H124500   3.026   1.172   2.300
 4491TP3     H224501   3.118   1.119   2.191
 4492TP3      O24502   3.298   1.307   1.120
 4492TP3     H124503   3.327   1.256   1.199
 4492TP3     H224504   3.204   1.284   1.123
 4493TP3      O24505   3.344   1.645   2.458
 4493TP3     H124506   3.270   1.601   2.413
 4493TP3     H224507   3.360   1.718   2.395
 4494TP3      O24508   3.739   1.735   1.148
 4494TP3     H124509   3.805   1.802   1.123
 4494TP3     H224510   3.667   1.796   1.177
 4495TP3      O24511   2.148   0.371   2.411
 4495TP3     H124512   2.061   0.412   2.395
 4495TP3     H224513   2.121   0.279   2.432
 4496TP3      O24514   3.369   1.165   1.346
 4496TP3     H124515   3.346   1.084   1.396
 4496TP3     H224516   3.466   1.164   1.357
 4497TP3      O24517   2.108   1.549   2.241
 4497TP3     H124518   2.147   1.460   2.241
 4497TP3     H224519   2.137   1.583   2.327
 4498TP3      O24520   2.710   1.411   0.973
 4498TP3     H124521   2.715   1.337   0.910
 4498TP3     H224522   2.657   1.368   1.044
 4499TP3      O24523   2.578   1.360   1.218
 4499TP3     H124524   2.618   1.308   1.289
 4499TP3     H224525   2.593   1.452   1.251
 4500TP3      O24526   2.242   1.086   1.265
 4500TP3     H124527   2.166   1.127   1.313
 4500TP3     H224528   2.289   1.164   1.231
 4501TP3      O24529   3.024   0.350   2.295
 4501TP3     H124530   3.090   0.358   2.366
 4501TP3     H224531   2.978   0.267   2.319
 4502TP3      O24532   3.107   0.294   1.403
 4502TP3     H124533   3.116   0.351   1.325
 4502TP3     H224534   3.155   0.346   1.471
 4503TP3      O24535   2.863   1.525   1.282
 4503TP3     H124536   2.781   1.577   1.293
 4503TP3     H224537   2.918   1.585   1.230
 4504TP3      O24538   2.822   0.479   1.489
 4504TP3     H124539   2.893   0.546   1.493
 4504TP3     H224540   2.788   0.475   1.581
 4505TP3      O24541   2.871   0.587   2.410
 4505TP3     H124542   2.886   0.644   2.489
 4505TP3     H224543   2.940   0.520   2.417
 4506TP3      O24544   2.900   0.185   1.581
 4506TP3     H124545   2.868   0.254   1.642
 4506TP3     H224546   2.966   0.237   1.531
 4507TP3      O24547   2.609   1.627   1.289
 4507TP3     H124548   2.614   1.707   1.232
 4507TP3     H224549   2.576   1.665   1.374
 4508TP3      O24550   2.465   0.307   1.238
 4508TP3     H124551   2.461   0.394   1.283
 4508TP3     H224552   2.554   0.279   1.271
 4509TP3      O24553   3.487   0.375   2.491
 4509TP3     H124554   3.395   0.407   2.474
 4509TP3     H224555   3.520   0.370   2.400
 4510TP3      O24556   3.354   0.753   1.887
 4510TP3     H124557   3.271   0.705   1.864
 4510TP3     H224558   3.405   0.686   1.938
 4511TP3      O24559   2.290   1.345   1.145
 4511TP3     H124560   2.360   1.399   1.183
 4511TP3     H224561   2.342   1.295   1.079
 4512TP3      O24562   2.118   0.610   1.059
 4512TP3     H124563   2.125   0.703   1.086
 4512TP3     H224564   2.026   0.599   1.027
 4513TP3      O24565   3.456   1.689   2.057
 4513TP3     H124566   3.455   1.753   1.982
 4513TP3     H224567   3.553   1.683   2.072
 4514TP3      O24568   2.240   0.128   1.909
 4514TP3     H124569   2.196   0.123   1.821
 4514TP3     H224570   2.187   0.058   1.954
 4515TP3      O24571   2.099   1.485   1.558
 4515TP3     H124572   2.013   1.526   1.545
 4515TP3     H224573   2.145   1.523   1.481
 4516TP3      O24574   2.020   1.748   2.684
 4516TP3     H124575   2.086   1.723   2.750
 4516TP3     H224576   1.983   1.663   2.656
 4517TP3      O24577   2.910   1.594   0.984
 4517TP3     H124578   2.838   1.528   0.998
 4517TP3     H224579   2.981   1.533   0.955
 4518TP3      O24580   3.133   1.484   2.721
 4518TP3     H124581   3.103   1.393   2.743
 4518TP3     H224582   3.220   1.488   2.763
 4519TP3      O24583   3.363   1.565   0.999
 4519TP3     H124584   3.390   1.488   1.053
 4519TP3     H224585   3.440   1.580   0.943
 4520TP3      O24586   2.006   1.112   2.778
 4520TP3     H124587   2.022   1.024   2.739
 4520TP3     H224588   1.935   1.147   2.721
 4521TP3      O24589   2.449   1.161   0.976
 4521TP3     H124590   2.462   1.087   1.037
 4521TP3     H224591   2.528   1.149   0.919
 4522TP3      O24592   2.692   1.122   2.713
 4522TP3     H124593   2.654   1.163   2.632
 4522TP3     H224594   2.686   1.025   2.696
 4523TP3      O24595   2.995   1.274   0.959
 4523TP3     H124596   2.968   1.277   1.052
 4523TP3     H224597   2.979   1.178   0.940
 4524TP3      O24598   3.251   1.110   2.464
 4524TP3     H124599   3.333   1.164   2.456
 4524TP3     H224600   3.185   1.181   2.461
 4525TP3      O24601   2.115   0.847   2.725
 4525TP3     H124602   2.150   0.758   2.714
 4525TP3     H224603   2.083   0.846   2.816
 4526TP3      O24604   2.572   0.962   1.233
 4526TP3     H124605   2.514   0.907   1.287
 4526TP3     H224606   2.603   0.899   1.164
 4527TP3      O24607   2.492   0.739   2.452
 4527TP3     H124608   2.437   0.816   2.478
 4527TP3     H224609   2.538   0.777   2.375
 4528TP3      O24610   2.678   0.788   1.044
 4528TP3     H124611   2.663   0.783   0.948
 4528TP3     H224612   2.776   0.787   1.053
 4529TP3      O24613   3.010   1.005   2.798
 4529TP3     H124614   3.103   0.989   2.777
 4529TP3     H224615   2.983   0.924   2.844
 4530TP3      O24616   3.604   1.016   0.983
 4530TP3     H124617   3.592   0.982   0.893
 4530TP3     H224618   3.616   1.113   0.968
 4531TP3      O24619   2.543   0.485   2.549
 4531TP3     H124620   2.583   0.423   2.483
 4531TP3     H224621   2.550   0.571   2.502
 4532TP3      O24622   2.575   0.325   2.320
 4532TP3     H124623   2.630   0.368   2.248
 4532TP3     H224624   2.491   0.310   2.270
 4533TP3      O24625   2.730   0.873   2.344
 4533TP3     H124626   2.806   0.855   2.287
 4533TP3     H224627   2.691   0.953   2.304
 4534TP3      O24628   3.168   0.638   2.826
 4534TP3     H124629   3.199   0.546   2.829
 4534TP3     H224630   3.252   0.686   2.841
 4535TP3      O24631   3.306   0.925   2.650
 4535TP3     H124632   3.282   0.995   2.585
 4535TP3     H224633   3.402   0.918   2.634
 4536TP3      O24634   2.382   0.610   2.755
 4536TP3     H124635   2.307   0.549   2.745
 4536TP3     H224636   2.449   0.580   2.691
 4537TP3      O24637   2.656   0.070   2.354
 4537TP3     H124638   2.638   0.165   2.341
 4537TP3     H224639   2.586   0.030   2.302
 4538TP3      O24640   2.791   0.492   2.717
 4538TP3     H124641   2.758   0.476   2.807
 4538TP3     H224642   2.712   0.476   2.663
 4539TP3      O24643   3.059   0.394   2.620
 4539TP3     H124644   2.965   0.411   2.638
 4539TP3     H224645   3.085   0.346   2.702
 4540TP3      O24646   3.198   0.282   2.821
 4540TP3     H124647   3.211   0.184   2.819
 4540TP3     H224648   3.187   0.301   2.916
 4541TP3      O24649   2.206   0.390   2.727
 4541TP3     H124650   2.196   0.304   2.680
 4541TP3     H224651   2.182   0.364   2.818
 4542TP3      O24652   2.642   5.523   2.612
 4542TP3     H124653   2.724   5.471   2.628
 4542TP3     H224654   2.655   5.548   2.517
 4543TP3      O24655   2.723   0.160   2.832
 4543TP3     H124656   2.702   0.108   2.753
 4543TP3     H224657   2.659   0.233   2.826
 4544TP3      O24658   2.659   1.857   1.158
 4544TP3     H124659   2.756   1.859   1.162
 4544TP3     H224660   2.647   1.910   1.077
 4545TP3      O24661   2.012   1.310   1.102
 4545TP3     H124662   2.109   1.319   1.117
 4545TP3     H224663   2.013   1.249   1.025
 4546TP3      O24664   1.894   1.845   1.595
 4546TP3     H124665   1.820   1.796   1.553
 4546TP3     H224666   1.922   1.783   1.665
 4547TP3      O24667   1.976   1.664   1.787
 4547TP3     H124668   1.939   1.577   1.810
 4547TP3     H224669   2.002   1.698   1.874
 4548TP3      O24670   3.732   1.746   2.075
 4548TP3     H124671   3.737   1.757   2.172
 4548TP3     H224672   3.802   1.805   2.046
 4549TP3      O24673   3.695   1.698   2.367
 4549TP3     H124674   3.642   1.624   2.331
 4549TP3     H224675   3.737   1.652   2.442
 4550TP3      O24676   3.542   1.280   2.851
 4550TP3     H124677   3.448   1.270   2.865
 4550TP3     H224678   3.566   1.365   2.890
 4551TP3      O24679   3.664   1.110   1.377
 4551TP3     H124680   3.751   1.150   1.397
 4551TP3     H224681   3.660   1.041   1.447
 4552TP3      O24682   3.695   0.918   1.569
 4552TP3     H124683   3.619   0.870   1.609
 4552TP3     H224684   3.756   0.927   1.646
 4553TP3      O24685   3.675   1.183   2.066
 4553TP3     H124686   3.754   1.141   2.028
 4553TP3     H224687   3.692   1.278   2.051
 4554TP3      O24688   3.533   1.475   2.292
 4554TP3     H124689   3.464   1.509   2.351
 4554TP3     H224690   3.479   1.438   2.219
 4555TP3      O24691   3.730   0.899   1.210
 4555TP3     H124692   3.670   0.927   1.137
 4555TP3     H224693   3.714   0.971   1.274
 4556TP3      O24694   3.567   0.626   1.053
 4556TP3     H124695   3.576   0.690   0.982
 4556TP3     H224696   3.544   0.543   1.007
 4557TP3      O24697   3.480   0.764   1.631
 4557TP3     H124698   3.467   0.669   1.621
 4557TP3     H224699   3.454   0.778   1.725
 4558TP3      O24700   1.983   0.974   2.037
 4558TP3     H124701   1.996   0.963   1.941
 4558TP3     H224702   2.073   0.951   2.069
 4559TP3      O24703   3.568   0.959   2.604
 4559TP3     H124704   3.628   0.881   2.612
 4559TP3     H224705   3.632   1.032   2.591
 4560TP3      O24706   3.720   0.747   2.654
 4560TP3     H124707   3.629   0.708   2.652
 4560TP3     H224708   3.774   0.665   2.654
 4561TP3      O24709   3.493   0.377   0.979
 4561TP3     H124710   3.552   0.323   1.034
 4561TP3     H224711   3.408   0.328   0.983
 4562TP3      O24712   3.443   0.532   1.464
 4562TP3     H124713   3.469   0.438   1.483
 4562TP3     H224714   3.529   0.567   1.439
 4563TP3      O24715   3.514   0.579   2.020
 4563TP3     H124716   3.610   0.601   2.019
 4563TP3     H224717   3.497   0.589   2.115
 4564TP3      O24718   3.516   0.649   2.286
 4564TP3     H124719   3.431   0.677   2.327
 4564TP3     H224720   3.562   0.735   2.270
 4565TP3      O24721   1.955   0.504   2.656
 4565TP3     H124722   2.042   0.466   2.673
 4565TP3     H224723   1.896   0.425   2.664
 4566TP3      O24724   3.742   0.067   2.844
 4566TP3     H124725   3.775  -0.002   2.784
 4566TP3     H224726   3.746   0.143   2.782
 4567TP3      O24727   3.513   0.270   1.479
 4567TP3     H124728   3.539   0.219   1.559
 4567TP3     H224729   3.453   0.204   1.436
 4568TP3      O24730   2.058   0.333   1.943
 4568TP3     H124731   2.113   0.255   1.958
 4568TP3     H224732   2.121   0.402   1.968
 4569TP3      O24733   1.894   0.634   2.039
 4569TP3     H124734   1.949   0.607   1.963
 4569TP3     H224735   1.943   0.714   2.064
 4570TP3      O24736   3.699   0.263   2.663
 4570TP3     H124737   3.606   0.291   2.665
 4570TP3     H224738   3.696   0.207   2.585
 4571TP3      O24739   3.703   0.257   1.146
 4571TP3     H124740   3.726   0.193   1.074
 4571TP3     H224741   3.768   0.327   1.138
 4572TP3      O24742   1.925   0.262   1.447
 4572TP3     H124743   1.832   0.281   1.428
 4572TP3     H224744   1.970   0.309   1.374
 4573TP3      O24745   3.402   1.755   1.644
 4573TP3     H124746   3.469   1.724   1.580
 4573TP3     H224747   3.455   1.803   1.709
 4574TP3      O24748   1.941   0.155   2.283
 4574TP3     H124749   1.882   0.096   2.333
 4574TP3     H224750   1.879   0.191   2.216
 4575TP3      O24751   2.151   1.442   2.690
 4575TP3     H124752   2.065   1.461   2.650
 4575TP3     H224753   2.127   1.437   2.783
 4576TP3      O24754   2.437   1.545   2.317
 4576TP3     H124755   2.413   1.636   2.293
 4576TP3     H224756   2.531   1.548   2.291
 4577TP3      O24757   2.869   1.685   2.603
 4577TP3     H124758   2.878   1.656   2.696
 4577TP3     H224759   2.959   1.718   2.583
 4578TP3      O24760   3.097   1.810   2.544
 4578TP3     H124761   3.172   1.760   2.510
 4578TP3     H224762   3.138   1.859   2.617
 4579TP3      O24763   3.567   0.078   2.463
 4579TP3     H124764   3.504   0.127   2.409
 4579TP3     H224765   3.606   0.013   2.400
 4580TP3      O24766   2.179   1.865   2.311
 4580TP3     H124767   2.108   1.921   2.275
 4580TP3     H224768   2.151   1.854   2.403
 4581TP3      O24769   2.427   1.822   2.220
 4581TP3     H124770   2.339   1.842   2.261
 4581TP3     H224771   2.426   1.886   2.146
 4582TP3      O24772   2.903   1.815   2.136
 4582TP3     H124773   2.844   1.868   2.079
 4582TP3     H224774   2.906   1.870   2.217
 4583TP3      O24775   3.122   1.686   2.252
 4583TP3     H124776   3.043   1.721   2.208
 4583TP3     H224777   3.179   1.765   2.248
 4584TP3      O24778   3.375   1.850   2.262
 4584TP3     H124779   3.391   1.945   2.241
 4584TP3     H224780   3.407   1.807   2.179
 4585TP3      O24781   2.127   1.730   2.012
 4585TP3     H124782   2.117   1.684   2.098
 4585TP3     H224783   2.210   1.690   1.976
 4586TP3      O24784   2.336   1.603   1.877
 4586TP3     H124785   2.322   1.509   1.902
 4586TP3     H224786   2.423   1.620   1.919
 4587TP3      O24787   2.597   1.650   1.966
 4587TP3     H124788   2.610   1.557   1.942
 4587TP3     H224789   2.601   1.646   2.063
 4588TP3      O24790   2.945   0.221   1.879
 4588TP3     H124791   2.876   0.159   1.910
 4588TP3     H224792   2.998   0.162   1.824
 4589TP3      O24793   3.445   0.029   1.860
 4589TP3     H124794   3.511   0.088   1.817
 4589TP3     H224795   3.360   0.072   1.838
 4590TP3      O24796   3.629   0.154   1.710
 4590TP3     H124797   3.685   0.088   1.668
 4590TP3     H224798   3.686   0.234   1.719
 4591TP3      O24799   2.143   0.116   1.663
 4591TP3     H124800   2.075   0.075   1.607
 4591TP3     H224801   2.205   0.040   1.674
 4592TP3      O24802   2.079   0.103   1.243
 4592TP3     H124803   2.097   0.165   1.169
 4592TP3     H224804   1.995   0.136   1.278
 4593TP3      O24805   2.629   0.105   1.663
 4593TP3     H124806   2.723   0.118   1.642
 4593TP3     H224807   2.636   0.053   1.744
 4594TP3      O24808   3.212   0.095   1.778
 4594TP3     H124809   3.184   0.104   1.687
 4594TP3     H224810   3.172   0.011   1.808
 4595TP3      O24811   3.336   0.105   1.380
 4595TP3     H124812   3.252   0.145   1.351
 4595TP3     H224813   3.303   0.015   1.395
 4596TP3      O24814   2.043   1.647   1.344
 4596TP3     H124815   1.978   1.642   1.272
 4596TP3     H224816   2.044   1.743   1.356
 4597TP3      O24817   2.234   0.245   1.083
 4597TP3     H124818   2.288   0.188   1.026
 4597TP3     H224819   2.298   0.274   1.151
 4598TP3      O24820   2.721   0.272   1.338
 4598TP3     H124821   2.771   0.217   1.402
 4598TP3     H224822   2.746   0.361   1.371
 4599TP3      O24823   2.934   1.784   1.169
 4599TP3     H124824   3.028   1.795   1.147
 4599TP3     H224825   2.911   1.725   1.095
 4600TP3      O24826   3.595   1.723   1.449
 4600TP3     H124827   3.580   1.646   1.391
 4600TP3     H224828   3.589   1.798   1.385
 4601TP3      O24829   2.184   0.159   2.595
 4601TP3     H124830   2.122   0.084   2.612
 4601TP3     H224831   2.263   0.122   2.642
 4602TP3      O24832   2.385   0.090   2.742
 4602TP3     H124833   2.470   0.042   2.746
 4602TP3     H224834   2.331   0.021   2.790
 4603TP3      O24835   2.221   1.748   1.034
 4603TP3     H124836   2.194   1.773   1.124
 4603TP3     H224837   2.299   1.690   1.049
 4604TP3      O24838   3.212   5.546   2.768
 4604TP3     H124839   3.199   5.496   2.851
 4604TP3     H224840   3.300   5.519   2.741
 4605TP3      O24841   3.526   1.600   2.650
 4605TP3     H124842   3.450   1.595   2.588
 4605TP3     H224843   3.522   1.695   2.670
 4606TP3      O24844   4.970   0.993   1.646
 4606TP3     H124845   4.966   1.091   1.651
 4606TP3     H224846   4.896   0.971   1.587
 4607TP3      O24847   4.857   0.913   1.997
 4607TP3     H124848   4.861   0.850   2.071
 4607TP3     H224849   4.814   0.861   1.927
 4608TP3      O24850   4.091   0.888   2.153
 4608TP3     H124851   4.098   0.816   2.219
 4608TP3     H224852   4.167   0.942   2.177
 4609TP3      O24853   5.219   1.220   1.827
 4609TP3     H124854   5.189   1.140   1.873
 4609TP3     H224855   5.238   1.279   1.902
 4610TP3      O24856   4.183   1.334   1.995
 4610TP3     H124857   4.154   1.243   1.970
 4610TP3     H224858   4.278   1.316   2.001
 4611TP3      O24859   3.846   0.684   1.551
 4611TP3     H124860   3.798   0.768   1.544
 4611TP3     H224861   3.791   0.626   1.497
 4612TP3      O24862   3.922   0.909   1.774
 4612TP3     H124863   3.952   0.824   1.812
 4612TP3     H224864   3.983   0.922   1.700
 4613TP3      O24865   4.933   1.728   1.853
 4613TP3     H124866   5.000   1.663   1.821
 4613TP3     H224867   4.909   1.688   1.936
 4614TP3      O24868   4.694   1.156   2.051
 4614TP3     H124869   4.725   1.094   1.983
 4614TP3     H224870   4.778   1.172   2.098
 4615TP3      O24871   5.003   0.600   2.084
 4615TP3     H124872   5.034   0.508   2.087
 4615TP3     H224873   5.002   0.615   1.987
 4616TP3      O24874   4.318   0.417   1.798
 4616TP3     H124875   4.335   0.496   1.743
 4616TP3     H224876   4.288   0.351   1.733
 4617TP3      O24877   5.097   0.415   1.636
 4617TP3     H124878   5.162   0.382   1.701
 4617TP3     H224879   5.150   0.482   1.591
 4618TP3      O24880   3.981   0.659   1.873
 4618TP3     H124881   4.047   0.606   1.921
 4618TP3     H224882   3.995   0.625   1.783
 4619TP3      O24883   4.496   0.810   1.811
 4619TP3     H124884   4.567   0.751   1.842
 4619TP3     H224885   4.449   0.748   1.752
 4620TP3      O24886   4.218   0.310   2.206
 4620TP3     H124887   4.186   0.365   2.131
 4620TP3     H224888   4.146   0.323   2.273
 4621TP3      O24889   4.936   1.248   1.558
 4621TP3     H124890   4.918   1.226   1.465
 4621TP3     H224891   4.910   1.342   1.564
 4622TP3      O24892   4.462   1.067   2.222
 4622TP3     H124893   4.394   1.132   2.251
 4622TP3     H224894   4.533   1.126   2.191
 4623TP3      O24895   5.274   0.368   1.836
 4623TP3     H124896   5.248   0.287   1.883
 4623TP3     H224897   5.342   0.404   1.895
 4624TP3      O24898   4.172   0.493   2.005
 4624TP3     H124899   4.236   0.559   2.039
 4624TP3     H224900   4.224   0.453   1.930
 4625TP3      O24901   4.311   1.271   2.306
 4625TP3     H124902   4.304   1.363   2.274
 4625TP3     H224903   4.223   1.261   2.349
 4626TP3      O24904   3.917   1.225   1.383
 4626TP3     H124905   3.894   1.267   1.298
 4626TP3     H224906   3.926   1.302   1.442
 4627TP3      O24907   5.269   1.394   2.061
 4627TP3     H124908   5.172   1.409   2.075
 4627TP3     H224909   5.301   1.484   2.042
 4628TP3      O24910   5.319   0.221   2.203
 4628TP3     H124911   5.238   0.273   2.192
 4628TP3     H224912   5.376   0.270   2.143
 4629TP3      O24913   4.615   0.068   1.944
 4629TP3     H124914   4.613  -0.029   1.947
 4629TP3     H224915   4.523   0.087   1.975
 4630TP3      O24916   5.103   1.576   1.720
 4630TP3     H124917   5.144   1.502   1.670
 4630TP3     H224918   5.156   1.652   1.687
 4631TP3      O24919   5.221   1.363   1.563
 4631TP3     H124920   5.189   1.289   1.509
 4631TP3     H224921   5.230   1.320   1.651
 4632TP3      O24922   5.377   1.228   2.432
 4632TP3     H124923   5.405   1.163   2.365
 4632TP3     H224924   5.406   1.311   2.388
 4633TP3      O24925   4.833   0.913   1.397
 4633TP3     H124926   4.769   0.978   1.361
 4633TP3     H224927   4.908   0.923   1.336
 4634TP3      O24928   4.848   0.775   1.100
 4634TP3     H124929   4.919   0.782   1.165
 4634TP3     H224930   4.879   0.699   1.049
 4635TP3      O24931   5.173   0.926   1.487
 4635TP3     H124932   5.105   0.958   1.551
 4635TP3     H224933   5.231   0.873   1.546
 4636TP3      O24934   5.174   0.757   2.403
 4636TP3     H124935   5.166   0.837   2.458
 4636TP3     H224936   5.110   0.781   2.333
 4637TP3      O24937   4.343   1.003   1.684
 4637TP3     H124938   4.312   0.963   1.598
 4637TP3     H224939   4.405   0.934   1.718
 4638TP3      O24940   4.474   1.337   1.950
 4638TP3     H124941   4.476   1.290   1.866
 4638TP3     H224942   4.554   1.303   1.995
 4639TP3      O24943   4.373   0.875   2.054
 4639TP3     H124944   4.423   0.883   1.970
 4639TP3     H224945   4.415   0.944   2.110
 4640TP3      O24946   5.014   1.438   2.122
 4640TP3     H124947   4.992   1.500   2.192
 4640TP3     H224948   4.993   1.352   2.164
 4641TP3      O24949   4.469   1.321   2.523
 4641TP3     H124950   4.422   1.394   2.568
 4641TP3     H224951   4.406   1.297   2.451
 4642TP3      O24952   5.074   0.856   1.253
 4642TP3     H124953   5.122   0.879   1.336
 4642TP3     H224954   5.120   0.908   1.183
 4643TP3      O24955   4.168   0.935   2.432
 4643TP3     H124956   4.174   1.001   2.504
 4643TP3     H224957   4.071   0.936   2.418
 4644TP3      O24958   4.842   1.530   1.603
 4644TP3     H124959   4.881   1.560   1.686
 4644TP3     H224960   4.787   1.605   1.577
 4645TP3      O24961   4.294   1.519   2.594
 4645TP3     H124962   4.286   1.515   2.497
 4645TP3     H224963   4.201   1.506   2.622
 4646TP3      O24964   5.438   0.034   1.210
 4646TP3     H124965   5.356   0.038   1.264
 4646TP3     H224966   5.454   0.127   1.194
 4647TP3      O24967   4.235   0.900   1.451
 4647TP3     H124968   4.209   0.979   1.398
 4647TP3     H224969   4.175   0.833   1.420
 4648TP3      O24970   3.847   1.147   2.341
 4648TP3     H124971   3.805   1.139   2.254
 4648TP3     H224972   3.861   1.052   2.362
 4649TP3      O24973   3.822   1.421   2.015
 4649TP3     H124974   3.918   1.409   2.012
 4649TP3     H224975   3.816   1.504   2.063
 4650TP3      O24976   4.744   1.443   2.471
 4650TP3     H124977   4.747   1.529   2.520
 4650TP3     H224978   4.657   1.405   2.495
 4651TP3      O24979   4.794   1.818   1.444
 4651TP3     H124980   4.778   1.814   1.348
 4651TP3     H224981   4.789   1.913   1.464
 4652TP3      O24982   4.152   1.708   1.631
 4652TP3     H124983   4.169   1.666   1.719
 4652TP3     H224984   4.067   1.666   1.608
 4653TP3      O24985   5.099   1.743   1.144
 4653TP3     H124986   5.139   1.663   1.104
 4653TP3     H224987   5.098   1.721   1.239
 4654TP3      O24988   5.061   1.734   1.422
 4654TP3     H124989   4.964   1.743   1.437
 4654TP3     H224990   5.081   1.659   1.480
 4655TP3      O24991   5.340   0.641   2.630
 4655TP3     H124992   5.301   0.678   2.550
 4655TP3     H224993   5.377   0.557   2.597
 4656TP3      O24994   4.078   1.278   2.429
 4656TP3     H124995   4.097   1.246   2.519
 4656TP3     H224996   3.990   1.241   2.409
 4657TP3      O24997   4.361   0.134   2.036
 4657TP3     H124998   4.278   0.119   1.985
 4657TP3     H224999   4.332   0.211   2.086
 4658TP3      O25000   4.809   0.107   2.363
 4658TP3     H125001   4.850   0.062   2.436
 4658TP3     H225002   4.715   0.082   2.370
 4659TP3      O25003   5.136   0.481   2.435
 4659TP3     H125004   5.087   0.460   2.517
 4659TP3     H225005   5.125   0.577   2.427
 4660TP3      O25006   5.209   0.965   1.054
 4660TP3     H125007   5.205   0.938   0.960
 4660TP3     H225008   5.295   1.009   1.053
 4661TP3      O25009   4.775   0.354   1.098
 4661TP3     H125010   4.746   0.340   1.189
 4661TP3     H225011   4.743   0.270   1.060
 4662TP3      O25012   4.355   0.625   2.156
 4662TP3     H125013   4.281   0.629   2.219
 4662TP3     H225014   4.351   0.715   2.114
 4663TP3      O25015   4.353   0.631   1.637
 4663TP3     H125016   4.258   0.609   1.628
 4663TP3     H225017   4.387   0.606   1.549
 4664TP3      O25018   4.907   0.690   1.513
 4664TP3     H125019   4.868   0.772   1.475
 4664TP3     H225020   4.974   0.668   1.447
 4665TP3      O25021   4.809   0.711   2.654
 4665TP3     H125022   4.760   0.630   2.682
 4665TP3     H225023   4.891   0.704   2.705
 4666TP3      O25024   5.006   0.640   1.804
 4666TP3     H125025   4.978   0.696   1.730
 4666TP3     H225026   5.017   0.555   1.758
 4667TP3      O25027   4.115   0.648   2.314
 4667TP3     H125028   4.135   0.686   2.401
 4667TP3     H225029   4.077   0.562   2.338
 4668TP3      O25030   4.449   0.389   1.000
 4668TP3     H125031   4.403   0.347   1.076
 4668TP3     H225032   4.377   0.435   0.954
 4669TP3      O25033   3.788   0.370   1.719
 4669TP3     H125034   3.852   0.361   1.793
 4669TP3     H225035   3.832   0.324   1.646
 4670TP3      O25036   3.909   0.436   1.257
 4670TP3     H125037   3.963   0.490   1.196
 4670TP3     H225038   3.842   0.503   1.283
 4671TP3      O25039   4.924   0.793   2.247
 4671TP3     H125040   4.967   0.723   2.192
 4671TP3     H225041   4.878   0.740   2.314
 4672TP3      O25042   4.613   0.413   1.741
 4672TP3     H125043   4.521   0.388   1.759
 4672TP3     H225044   4.655   0.368   1.817
 4673TP3      O25045   4.086   0.546   1.627
 4673TP3     H125046   4.000   0.563   1.584
 4673TP3     H225047   4.116   0.465   1.583
 4674TP3      O25048   4.451   0.553   1.388
 4674TP3     H125049   4.547   0.561   1.400
 4674TP3     H225050   4.427   0.622   1.323
 4675TP3      O25051   5.046   0.304   2.063
 4675TP3     H125052   4.976   0.322   2.129
 4675TP3     H225053   4.995   0.290   1.981
 4676TP3      O25054   4.325   0.670   1.145
 4676TP3     H125055   4.272   0.630   1.074
 4676TP3     H225056   4.406   0.692   1.097
 4677TP3      O25057   5.365   1.888   2.716
 4677TP3     H125058   5.388   1.910   2.623
 4677TP3     H225059   5.453   1.899   2.753
 4678TP3      O25060   4.135   1.123   2.658
 4678TP3     H125061   4.205   1.156   2.716
 4678TP3     H225062   4.057   1.130   2.718
 4679TP3      O25063   4.735   0.668   1.926
 4679TP3     H125064   4.800   0.615   1.879
 4679TP3     H225065   4.718   0.613   2.004
 4680TP3      O25066   4.236   0.283   1.573
 4680TP3     H125067   4.200   0.193   1.577
 4680TP3     H225068   4.314   0.271   1.518
 4681TP3      O25069   4.599   0.496   2.166
 4681TP3     H125070   4.518   0.550   2.174
 4681TP3     H225071   4.657   0.534   2.235
 4682TP3      O25072   4.659   1.120   1.341
 4682TP3     H125073   4.578   1.076   1.305
 4682TP3     H225074   4.630   1.140   1.432
 4683TP3      O25075   5.379   1.050   2.218
 4683TP3     H125076   5.433   1.081   2.144
 4683TP3     H225077   5.292   1.040   2.175
 4684TP3      O25078   5.039   0.404   1.154
 4684TP3     H125079   4.942   0.416   1.141
 4684TP3     H225080   5.069   0.488   1.192
 4685TP3      O25081   4.807   1.155   2.462
 4685TP3     H125082   4.776   1.108   2.541
 4685TP3     H225083   4.781   1.247   2.478
 4686TP3      O25084   5.112   0.597   1.310
 4686TP3     H125085   5.194   0.586   1.363
 4686TP3     H225086   5.127   0.683   1.265
 4687TP3      O25087   4.171   1.065   1.918
 4687TP3     H125088   4.232   1.054   1.843
 4687TP3     H225089   4.176   0.980   1.965
 4688TP3      O25090   4.863   1.267   1.243
 4688TP3     H125091   4.829   1.353   1.276
 4688TP3     H225092   4.791   1.206   1.267
 4689TP3      O25093   3.869   0.898   2.443
 4689TP3     H125094   3.879   0.855   2.531
 4689TP3     H225095   3.804   0.841   2.399
 4690TP3      O25096   4.567   0.858   2.656
 4690TP3     H125097   4.535   0.820   2.573
 4690TP3     H225098   4.660   0.826   2.656
 4691TP3      O25099   5.037   1.394   2.463
 4691TP3     H125100   4.945   1.410   2.437
 4691TP3     H225101   5.034   1.428   2.554
 4692TP3      O25102   5.435   1.482   1.324
 4692TP3     H125103   5.392   1.406   1.367
 4692TP3     H225104   5.461   1.450   1.237
 4693TP3      O25105   5.152   0.971   2.052
 4693TP3     H125106   5.058   0.956   2.031
 4693TP3     H225107   5.194   0.902   1.998
 4694TP3      O25108   4.408   1.411   1.658
 4694TP3     H125109   4.455   1.492   1.637
 4694TP3     H225110   4.320   1.430   1.623
 4695TP3      O25111   3.986   0.891   1.113
 4695TP3     H125112   4.040   0.958   1.158
 4695TP3     H225113   3.894   0.919   1.135
 4696TP3      O25114   4.544   1.177   1.603
 4696TP3     H125115   4.509   1.267   1.616
 4696TP3     H225116   4.480   1.122   1.652
 4697TP3      O25117   4.592   1.595   2.256
 4697TP3     H125118   4.643   1.670   2.222
 4697TP3     H225119   4.656   1.556   2.318
 4698TP3      O25120   4.415   1.671   1.556
 4698TP3     H125121   4.319   1.685   1.576
 4698TP3     H225122   4.453   1.755   1.588
 4699TP3      O25123   4.935   1.187   2.207
 4699TP3     H125124   4.911   1.172   2.301
 4699TP3     H225125   5.000   1.116   2.191
 4700TP3      O25126   5.175   1.308   1.124
 4700TP3     H125127   5.205   1.257   1.202
 4700TP3     H225128   5.081   1.283   1.124
 4701TP3      O25129   5.223   1.645   2.459
 4701TP3     H125130   5.149   1.600   2.412
 4701TP3     H225131   5.244   1.717   2.396
 4702TP3      O25132   4.035   0.374   2.402
 4702TP3     H125133   3.945   0.411   2.393
 4702TP3     H225134   4.018   0.287   2.441
 4703TP3      O25135   5.257   1.160   1.346
 4703TP3     H125136   5.227   1.081   1.395
 4703TP3     H225137   5.352   1.160   1.366
 4704TP3      O25138   3.994   1.550   2.239
 4704TP3     H125139   4.032   1.461   2.241
 4704TP3     H225140   4.019   1.584   2.326
 4705TP3      O25141   4.595   1.410   0.973
 4705TP3     H125142   4.601   1.337   0.910
 4705TP3     H225143   4.542   1.368   1.044
 4706TP3      O25144   4.464   1.360   1.218
 4706TP3     H125145   4.503   1.309   1.289
 4706TP3     H225146   4.478   1.452   1.250
 4707TP3      O25147   4.126   1.085   1.265
 4707TP3     H125148   4.051   1.127   1.313
 4707TP3     H225149   4.174   1.162   1.230
 4708TP3      O25150   4.906   0.349   2.299
 4708TP3     H125151   4.976   0.357   2.365
 4708TP3     H225152   4.863   0.265   2.322
 4709TP3      O25153   4.993   0.296   1.403
 4709TP3     H125154   5.001   0.353   1.324
 4709TP3     H225155   5.044   0.347   1.469
 4710TP3      O25156   4.749   1.525   1.283
 4710TP3     H125157   4.666   1.577   1.293
 4710TP3     H225158   4.804   1.585   1.230
 4711TP3      O25159   4.707   0.479   1.488
 4711TP3     H125160   4.779   0.546   1.493
 4711TP3     H225161   4.674   0.476   1.581
 4712TP3      O25162   4.758   0.587   2.408
 4712TP3     H125163   4.769   0.645   2.486
 4712TP3     H225164   4.828   0.521   2.414
 4713TP3      O25165   4.779   0.186   1.582
 4713TP3     H125166   4.751   0.255   1.644
 4713TP3     H225167   4.849   0.236   1.532
 4714TP3      O25168   4.494   1.626   1.289
 4714TP3     H125169   4.498   1.706   1.231
 4714TP3     H225170   4.461   1.664   1.374
 4715TP3      O25171   4.350   0.307   1.238
 4715TP3     H125172   4.347   0.394   1.283
 4715TP3     H225173   4.438   0.279   1.270
 4716TP3      O25174   5.373   0.381   2.490
 4716TP3     H125175   5.279   0.404   2.470
 4716TP3     H225176   5.412   0.381   2.401
 4717TP3      O25177   5.235   0.758   1.888
 4717TP3     H125178   5.154   0.712   1.858
 4717TP3     H225179   5.277   0.686   1.941
 4718TP3      O25180   4.175   1.345   1.145
 4718TP3     H125181   4.246   1.400   1.183
 4718TP3     H225182   4.227   1.295   1.079
 4719TP3      O25183   4.008   0.613   1.063
 4719TP3     H125184   4.016   0.707   1.088
 4719TP3     H225185   3.919   0.605   1.028
 4720TP3      O25186   5.349   1.678   2.058
 4720TP3     H125187   5.332   1.744   1.987
 4720TP3     H225188   5.444   1.685   2.071
 4721TP3      O25189   4.123   0.125   1.911
 4721TP3     H125190   4.080   0.121   1.823
 4721TP3     H225191   4.068   0.056   1.955
 4722TP3      O25192   3.986   1.484   1.558
 4722TP3     H125193   3.899   1.524   1.546
 4722TP3     H225194   4.030   1.523   1.481
 4723TP3      O25195   3.910   1.746   2.678
 4723TP3     H125196   3.967   1.731   2.756
 4723TP3     H225197   3.866   1.660   2.668
 4724TP3      O25198   4.374   1.641   2.838
 4724TP3     H125199   4.449   1.589   2.869
 4724TP3     H225200   4.368   1.614   2.744
 4725TP3      O25201   4.796   1.594   0.985
 4725TP3     H125202   4.724   1.528   0.998
 4725TP3     H225203   4.866   1.534   0.955
 4726TP3      O25204   5.010   1.485   2.720
 4726TP3     H125205   4.989   1.390   2.737
 4726TP3     H225206   5.102   1.489   2.750
 4727TP3      O25207   5.249   1.561   0.998
 4727TP3     H125208   5.274   1.485   1.052
 4727TP3     H225209   5.327   1.585   0.945
 4728TP3      O25210   3.895   1.122   2.783
 4728TP3     H125211   3.911   1.033   2.748
 4728TP3     H225212   3.826   1.155   2.723
 4729TP3      O25213   4.335   1.161   0.976
 4729TP3     H125214   4.347   1.087   1.037
 4729TP3     H225215   4.413   1.150   0.919
 4730TP3      O25216   4.572   1.126   2.717
 4730TP3     H125217   4.540   1.161   2.632
 4730TP3     H225218   4.572   1.028   2.704
 4731TP3      O25219   4.882   1.272   0.960
 4731TP3     H125220   4.854   1.276   1.053
 4731TP3     H225221   4.864   1.178   0.941
 4732TP3      O25222   5.137   1.108   2.457
 4732TP3     H125223   5.219   1.163   2.456
 4732TP3     H225224   5.071   1.178   2.455
 4733TP3      O25225   3.990   0.846   2.720
 4733TP3     H125226   4.039   0.764   2.709
 4733TP3     H225227   3.969   0.847   2.814
 4734TP3      O25228   4.457   0.962   1.232
 4734TP3     H125229   4.400   0.907   1.287
 4734TP3     H225230   4.488   0.898   1.164
 4735TP3      O25231   4.380   0.740   2.449
 4735TP3     H125232   4.324   0.815   2.476
 4735TP3     H225233   4.425   0.779   2.373
 4736TP3      O25234   4.564   0.787   1.044
 4736TP3     H125235   4.550   0.783   0.947
 4736TP3     H225236   4.662   0.787   1.053
 4737TP3      O25237   4.892   1.006   2.797
 4737TP3     H125238   4.986   0.990   2.778
 4737TP3     H225239   4.867   0.924   2.845
 4738TP3      O25240   5.489   1.002   0.997
 4738TP3     H125241   5.465   0.976   0.905
 4738TP3     H225242   5.501   1.099   0.989
 4739TP3      O25243   4.427   0.484   2.558
 4739TP3     H125244   4.436   0.415   2.490
 4739TP3     H225245   4.418   0.565   2.502
 4740TP3      O25246   4.467   0.321   2.316
 4740TP3     H125247   4.516   0.368   2.243
 4740TP3     H225248   4.376   0.313   2.278
 4741TP3      O25249   4.615   0.872   2.341
 4741TP3     H125250   4.691   0.855   2.285
 4741TP3     H225251   4.577   0.953   2.302
 4742TP3      O25252   5.050   0.639   2.826
 4742TP3     H125253   5.080   0.547   2.825
 4742TP3     H225254   5.134   0.687   2.830
 4743TP3      O25255   5.184   0.929   2.651
 4743TP3     H125256   5.165   1.001   2.586
 4743TP3     H225257   5.280   0.917   2.637
 4744TP3      O25258   4.266   0.607   2.750
 4744TP3     H125259   4.192   0.545   2.739
 4744TP3     H225260   4.331   0.570   2.688
 4745TP3      O25261   4.540   0.066   2.353
 4745TP3     H125262   4.523   0.163   2.344
 4745TP3     H225263   4.466   0.032   2.302
 4746TP3      O25264   4.671   0.487   2.711
 4746TP3     H125265   4.639   0.470   2.801
 4746TP3     H225266   4.589   0.472   2.660
 4747TP3      O25267   4.941   0.408   2.629
 4747TP3     H125268   4.844   0.413   2.638
 4747TP3     H225269   4.967   0.348   2.702
 4748TP3      O25270   5.092   0.284   2.829
 4748TP3     H125271   5.096   0.186   2.818
 4748TP3     H225272   5.059   0.291   2.918
 4749TP3      O25273   4.078   0.396   2.733
 4749TP3     H125274   4.100   0.325   2.669
 4749TP3     H225275   4.072   0.348   2.818
 4750TP3      O25276   4.532   5.517   2.611
 4750TP3     H125277   4.616   5.468   2.622
 4750TP3     H225278   4.546   5.553   2.520
 4751TP3      O25279   4.606   0.157   2.828
 4751TP3     H125280   4.582   0.112   2.746
 4751TP3     H225281   4.547   0.235   2.828
 4752TP3      O25282   4.543   1.857   1.158
 4752TP3     H125283   4.640   1.859   1.162
 4752TP3     H225284   4.532   1.909   1.077
 4753TP3      O25285   3.898   1.310   1.101
 4753TP3     H125286   3.994   1.318   1.117
 4753TP3     H225287   3.899   1.248   1.025
 4754TP3      O25288   3.777   1.847   1.597
 4754TP3     H125289   3.707   1.795   1.551
 4754TP3     H225290   3.807   1.784   1.665
 4755TP3      O25291   3.862   1.664   1.789
 4755TP3     H125292   3.825   1.578   1.811
 4755TP3     H225293   3.891   1.697   1.876
 4756TP3      O25294   5.420   1.273   2.867
 4756TP3     H125295   5.324   1.265   2.869
 4756TP3     H225296   5.433   1.368   2.863
 4757TP3      O25297   5.414   1.460   2.297
 4757TP3     H125298   5.351   1.516   2.345
 4757TP3     H225299   5.365   1.432   2.216
 4758TP3      O25300   5.463   0.625   1.058
 4758TP3     H125301   5.454   0.685   0.983
 4758TP3     H225302   5.430   0.540   1.020
 4759TP3      O25303   5.357   0.767   1.629
 4759TP3     H125304   5.354   0.670   1.628
 4759TP3     H225305   5.338   0.785   1.723
 4760TP3      O25306   3.869   0.972   2.036
 4760TP3     H125307   3.882   0.961   1.940
 4760TP3     H225308   3.959   0.951   2.069
 4761TP3      O25309   5.457   0.961   2.627
 4761TP3     H125310   5.506   0.880   2.608
 4761TP3     H225311   5.501   1.026   2.569
 4762TP3      O25312   5.372   0.388   0.983
 4762TP3     H125313   5.430   0.325   1.026
 4762TP3     H225314   5.291   0.335   0.975
 4763TP3      O25315   5.329   0.526   1.464
 4763TP3     H125316   5.351   0.434   1.497
 4763TP3     H225317   5.414   0.557   1.432
 4764TP3      O25318   5.349   0.561   2.025
 4764TP3     H125319   5.444   0.574   2.002
 4764TP3     H225320   5.364   0.584   2.119
 4765TP3      O25321   5.405   0.646   2.292
 4765TP3     H125322   5.320   0.677   2.329
 4765TP3     H225323   5.450   0.727   2.269
 4766TP3      O25324   3.835   0.506   2.653
 4766TP3     H125325   3.926   0.471   2.664
 4766TP3     H225326   3.783   0.425   2.669
 4767TP3      O25327   5.358   0.262   1.502
 4767TP3     H125328   5.407   0.206   1.566
 4767TP3     H225329   5.317   0.192   1.445
 4768TP3      O25330   3.943   0.333   1.943
 4768TP3     H125331   3.999   0.255   1.959
 4768TP3     H225332   4.006   0.402   1.967
 4769TP3      O25333   3.779   0.634   2.039
 4769TP3     H125334   3.835   0.607   1.963
 4769TP3     H225335   3.829   0.713   2.064
 4770TP3      O25336   3.812   0.259   1.447
 4770TP3     H125337   3.719   0.280   1.432
 4770TP3     H225338   3.856   0.310   1.376
 4771TP3      O25339   5.285   1.756   1.647
 4771TP3     H125340   5.347   1.723   1.579
 4771TP3     H225341   5.344   1.798   1.712
 4772TP3      O25342   3.825   0.145   2.277
 4772TP3     H125343   3.762   0.105   2.340
 4772TP3     H225344   3.765   0.193   2.217
 4773TP3      O25345   4.035   1.442   2.695
 4773TP3     H125346   3.952   1.465   2.650
 4773TP3     H225347   4.006   1.431   2.786
 4774TP3      O25348   4.322   1.545   2.317
 4774TP3     H125349   4.298   1.636   2.295
 4774TP3     H225350   4.416   1.547   2.289
 4775TP3      O25351   4.760   1.684   2.609
 4775TP3     H125352   4.774   1.655   2.701
 4775TP3     H225353   4.848   1.720   2.583
 4776TP3      O25354   4.984   1.811   2.546
 4776TP3     H125355   5.058   1.758   2.514
 4776TP3     H225356   5.024   1.862   2.618
 4777TP3      O25357   5.455   0.052   2.470
 4777TP3     H125358   5.389   0.105   2.422
 4777TP3     H225359   5.484  -0.017   2.408
 4778TP3      O25360   4.066   1.867   2.315
 4778TP3     H125361   3.992   1.918   2.277
 4778TP3     H225362   4.040   1.852   2.407
 4779TP3      O25363   4.312   1.823   2.222
 4779TP3     H125364   4.223   1.842   2.261
 4779TP3     H225365   4.309   1.885   2.146
 4780TP3      O25366   4.783   1.815   2.138
 4780TP3     H125367   4.736   1.872   2.075
 4780TP3     H225368   4.795   1.876   2.214
 4781TP3      O25369   5.007   1.688   2.254
 4781TP3     H125370   4.928   1.721   2.207
 4781TP3     H225371   5.062   1.767   2.243
 4782TP3      O25372   5.257   1.851   2.266
 4782TP3     H125373   5.262   1.945   2.240
 4782TP3     H225374   5.289   1.808   2.184
 4783TP3      O25375   4.017   1.732   2.013
 4783TP3     H125376   4.003   1.683   2.097
 4783TP3     H225377   4.097   1.690   1.975
 4784TP3      O25378   4.222   1.602   1.876
 4784TP3     H125379   4.208   1.509   1.903
 4784TP3     H225380   4.308   1.621   1.919
 4785TP3      O25381   4.481   1.650   1.966
 4785TP3     H125382   4.495   1.557   1.942
 4785TP3     H225383   4.486   1.647   2.063
 4786TP3      O25384   4.831   0.221   1.879
 4786TP3     H125385   4.761   0.159   1.910
 4786TP3     H225386   4.882   0.162   1.823
 4787TP3      O25387   5.339   0.040   1.880
 4787TP3     H125388   5.398   0.086   1.817
 4787TP3     H225389   5.252   0.064   1.841
 4788TP3      O25390  -0.029   0.148   1.705
 4788TP3     H125391   0.035   0.080   1.679
 4788TP3     H225392   0.028   0.220   1.735
 4789TP3      O25393   4.027   0.115   1.665
 4789TP3     H125394   3.960   0.075   1.608
 4789TP3     H225395   4.091   0.041   1.673
 4790TP3      O25396   3.964   0.103   1.241
 4790TP3     H125397   3.983   0.167   1.169
 4790TP3     H225398   3.882   0.135   1.281
 4791TP3      O25399   4.516   0.105   1.664
 4791TP3     H125400   4.610   0.118   1.642
 4791TP3     H225401   4.522   0.053   1.745
 4792TP3      O25402   5.105   0.088   1.779
 4792TP3     H125403   5.069   0.104   1.692
 4792TP3     H225404   5.057   0.009   1.810
 4793TP3      O25405   5.225   0.093   1.366
 4793TP3     H125406   5.140   0.138   1.348
 4793TP3     H225407   5.186   0.006   1.385
 4794TP3      O25408   3.929   1.647   1.344
 4794TP3     H125409   3.864   1.643   1.272
 4794TP3     H225410   3.933   1.743   1.352
 4795TP3      O25411   4.117   0.249   1.080
 4795TP3     H125412   4.171   0.189   1.026
 4795TP3     H225413   4.180   0.274   1.150
 4796TP3      O25414   4.609   0.271   1.337
 4796TP3     H125415   4.656   0.216   1.402
 4796TP3     H225416   4.632   0.360   1.371
 4797TP3      O25417   4.819   1.788   1.168
 4797TP3     H125418   4.914   1.797   1.149
 4797TP3     H225419   4.796   1.726   1.096
 4798TP3      O25420   5.434   1.722   1.428
 4798TP3     H125421   5.452   1.637   1.382
 4798TP3     H225422   5.471   1.789   1.365
 4799TP3      O25423   4.066   0.150   2.588
 4799TP3     H125424   4.007   0.078   2.620
 4799TP3     H225425   4.146   0.129   2.641
 4800TP3      O25426   4.238   0.076   2.778
 4800TP3     H125427   4.333   0.066   2.756
 4800TP3     H225428   4.226  -0.015   2.809
 4801TP3      O25429   4.107   1.748   1.034
 4801TP3     H125430   4.080   1.774   1.124
 4801TP3     H225431   4.184   1.690   1.049
 4802TP3      O25432   5.092   5.545   2.768
 4802TP3     H125433   5.089   5.497   2.853
 4802TP3     H225434   5.178   5.515   2.735
 4803TP3      O25435   5.398   1.602   2.668
 4803TP3     H125436   5.338   1.588   2.592
 4803TP3     H225437   5.403   1.699   2.665
 4804TP3      O25438   1.204   2.880   1.643
 4804TP3     H125439   1.195   2.977   1.649
 4804TP3     H225440   1.127   2.856   1.588
 4805TP3      O25441   1.087   2.799   1.996
 4805TP3     H125442   1.086   2.738   2.072
 4805TP3     H225443   1.042   2.748   1.927
 4806TP3      O25444   0.317   2.773   2.156
 4806TP3     H125445   0.325   2.699   2.221
 4806TP3     H225446   0.396   2.826   2.178
 4807TP3      O25447   1.454   3.096   1.832
 4807TP3     H125448   1.413   3.024   1.881
 4807TP3     H225449   1.455   3.167   1.898
 4808TP3      O25450   0.407   3.216   2.000
 4808TP3     H125451   0.381   3.127   1.970
 4808TP3     H225452   0.503   3.201   2.002
 4809TP3      O25453   0.089   2.582   1.532
 4809TP3     H125454   0.031   2.656   1.557
 4809TP3     H225455   0.026   2.513   1.517
 4810TP3      O25456   0.151   2.789   1.772
 4810TP3     H125457   0.183   2.706   1.812
 4810TP3     H225458   0.218   2.809   1.706
 4811TP3      O25459   1.162   3.616   1.853
 4811TP3     H125460   1.229   3.550   1.821
 4811TP3     H225461   1.137   3.575   1.936
 4812TP3      O25462   0.923   3.041   2.053
 4812TP3     H125463   0.954   2.981   1.984
 4812TP3     H225464   1.007   3.058   2.099
 4813TP3      O25465   1.773   2.208   2.114
 4813TP3     H125466   1.796   2.263   2.192
 4813TP3     H225467   1.837   2.245   2.051
 4814TP3      O25468   1.239   2.490   2.083
 4814TP3     H125469   1.257   2.395   2.087
 4814TP3     H225470   1.229   2.502   1.986
 4815TP3      O25471   0.547   2.297   1.795
 4815TP3     H125472   0.563   2.379   1.744
 4815TP3     H225473   0.512   2.239   1.724
 4816TP3      O25474   1.323   2.299   1.638
 4816TP3     H125475   1.387   2.273   1.708
 4816TP3     H225476   1.377   2.364   1.590
 4817TP3      O25477   0.231   2.545   1.861
 4817TP3     H125478   0.282   2.483   1.914
 4817TP3     H225479   0.234   2.502   1.774
 4818TP3      O25480   0.723   2.695   1.810
 4818TP3     H125481   0.794   2.638   1.843
 4818TP3     H225482   0.677   2.632   1.751
 4819TP3      O25483   1.817   2.342   2.346
 4819TP3     H125484   1.763   2.423   2.330
 4819TP3     H225485   1.832   2.349   2.441
 4820TP3      O25486   0.440   2.187   2.205
 4820TP3     H125487   0.419   2.246   2.129
 4820TP3     H225488   0.370   2.212   2.270
 4821TP3      O25489   1.165   3.135   1.558
 4821TP3     H125490   1.148   3.111   1.466
 4821TP3     H225491   1.138   3.229   1.563
 4822TP3      O25492   0.689   2.951   2.221
 4822TP3     H125493   0.621   3.013   2.254
 4822TP3     H225494   0.759   3.013   2.195
 4823TP3      O25495   1.507   2.244   1.835
 4823TP3     H125496   1.487   2.170   1.893
 4823TP3     H225497   1.576   2.288   1.887
 4824TP3      O25498   0.403   2.370   2.008
 4824TP3     H125499   0.462   2.443   2.038
 4824TP3     H225500   0.453   2.335   1.930
 4825TP3      O25501   0.541   3.156   2.303
 4825TP3     H125502   0.533   3.248   2.274
 4825TP3     H225503   0.454   3.144   2.346
 4826TP3      O25504   0.141   3.112   1.376
 4826TP3     H125505   0.118   3.154   1.291
 4826TP3     H225506   0.156   3.187   1.435
 4827TP3      O25507   1.505   3.283   2.064
 4827TP3     H125508   1.408   3.295   2.076
 4827TP3     H225509   1.531   3.374   2.039
 4828TP3      O25510   1.536   2.106   2.190
 4828TP3     H125511   1.469   2.176   2.190
 4828TP3     H225512   1.615   2.154   2.157
 4829TP3      O25513   0.832   1.922   1.947
 4829TP3     H125514   0.808   1.828   1.937
 4829TP3     H225515   0.747   1.957   1.981
 4830TP3      O25516   1.332   3.462   1.720
 4830TP3     H125517   1.370   3.388   1.669
 4830TP3     H225518   1.385   3.537   1.685
 4831TP3      O25519   1.455   3.253   1.573
 4831TP3     H125520   1.425   3.185   1.510
 4831TP3     H225521   1.458   3.202   1.657
 4832TP3      O25522   1.614   3.114   2.425
 4832TP3     H125523   1.628   3.044   2.358
 4832TP3     H225524   1.635   3.196   2.375
 4833TP3      O25525   1.066   2.799   1.397
 4833TP3     H125526   1.000   2.862   1.361
 4833TP3     H225527   1.140   2.810   1.334
 4834TP3      O25528   1.076   2.664   1.098
 4834TP3     H125529   1.147   2.667   1.165
 4834TP3     H225530   1.105   2.586   1.049
 4835TP3      O25531   1.808   2.750   2.223
 4835TP3     H125532   1.737   2.818   2.230
 4835TP3     H225533   1.838   2.764   2.134
 4836TP3      O25534   1.416   2.818   1.492
 4836TP3     H125535   1.340   2.845   1.550
 4836TP3     H225536   1.465   2.756   1.550
 4837TP3      O25537   1.402   2.637   2.408
 4837TP3     H125538   1.406   2.721   2.456
 4837TP3     H225539   1.342   2.665   2.337
 4838TP3      O25540   0.577   2.889   1.685
 4838TP3     H125541   0.541   2.850   1.601
 4838TP3     H225542   0.636   2.818   1.719
 4839TP3      O25543   0.702   3.222   1.950
 4839TP3     H125544   0.705   3.175   1.866
 4839TP3     H225545   0.782   3.189   1.996
 4840TP3      O25546   0.602   2.762   2.053
 4840TP3     H125547   0.653   2.769   1.970
 4840TP3     H225548   0.645   2.830   2.110
 4841TP3      O25549   1.249   3.323   2.123
 4841TP3     H125550   1.217   3.389   2.185
 4841TP3     H225551   1.222   3.239   2.164
 4842TP3      O25552   0.697   3.206   2.529
 4842TP3     H125553   0.650   3.281   2.571
 4842TP3     H225554   0.636   3.184   2.453
 4843TP3      O25555   1.301   2.748   1.255
 4843TP3     H125556   1.355   2.764   1.336
 4843TP3     H225557   1.352   2.795   1.184
 4844TP3      O25558   0.395   2.822   2.436
 4844TP3     H125559   0.401   2.894   2.501
 4844TP3     H225560   0.299   2.825   2.417
 4845TP3      O25561   1.069   3.414   1.607
 4845TP3     H125562   1.110   3.447   1.687
 4845TP3     H225563   1.016   3.490   1.577
 4846TP3      O25564   0.524   3.403   2.591
 4846TP3     H125565   0.514   3.399   2.494
 4846TP3     H225566   0.430   3.397   2.620
 4847TP3      O25567   1.674   1.914   1.256
 4847TP3     H125568   1.578   1.922   1.273
 4847TP3     H225569   1.693   1.997   1.208
 4848TP3      O25570   0.468   2.786   1.450
 4848TP3     H125571   0.439   2.864   1.399
 4848TP3     H225572   0.405   2.719   1.420
 4849TP3      O25573   1.781   3.349   1.097
 4849TP3     H125574   1.804   3.443   1.099
 4849TP3     H225575   1.870   3.312   1.084
 4850TP3      O25576   0.099   3.034   2.330
 4850TP3     H125577   0.056   3.028   2.244
 4850TP3     H225578   0.085   2.943   2.360
 4851TP3      O25579   0.066   3.318   1.997
 4851TP3     H125580   0.154   3.284   2.018
 4851TP3     H225581   0.051   3.377   2.071
 4852TP3      O25582   1.872   3.377   2.578
 4852TP3     H125583   1.862   3.281   2.583
 4852TP3     H225584   1.787   3.402   2.622
 4853TP3      O25585   0.971   3.331   2.465
 4853TP3     H125586   0.977   3.412   2.520
 4853TP3     H225587   0.884   3.295   2.489
 4854TP3      O25588   1.021   3.703   1.444
 4854TP3     H125589   1.008   3.699   1.347
 4854TP3     H225590   1.018   3.799   1.464
 4855TP3      O25591   0.380   3.591   1.627
 4855TP3     H125592   0.398   3.553   1.716
 4855TP3     H225593   0.295   3.550   1.606
 4856TP3      O25594   1.327   3.628   1.144
 4856TP3     H125595   1.374   3.552   1.102
 4856TP3     H225596   1.329   3.604   1.238
 4857TP3      O25597   1.295   3.621   1.423
 4857TP3     H125598   1.198   3.630   1.436
 4857TP3     H225599   1.313   3.545   1.480
 4858TP3      O25600   1.593   2.520   2.618
 4858TP3     H125601   1.539   2.564   2.551
 4858TP3     H225602   1.585   2.426   2.596
 4859TP3      O25603   0.311   3.165   2.434
 4859TP3     H125604   0.315   3.131   2.526
 4859TP3     H225605   0.223   3.131   2.406
 4860TP3      O25606   0.580   2.016   2.022
 4860TP3     H125607   0.490   1.998   1.987
 4860TP3     H225608   0.560   2.094   2.076
 4861TP3      O25609   1.042   1.967   2.357
 4861TP3     H125610   1.074   1.935   2.443
 4861TP3     H225611   0.943   1.971   2.372
 4862TP3      O25612   1.361   2.366   2.441
 4862TP3     H125613   1.310   2.344   2.522
 4862TP3     H225614   1.351   2.462   2.430
 4863TP3      O25615   1.447   2.851   1.053
 4863TP3     H125616   1.435   2.833   0.958
 4863TP3     H225617   1.532   2.898   1.048
 4864TP3      O25618   1.001   2.243   1.091
 4864TP3     H125619   0.969   2.233   1.182
 4864TP3     H225620   0.973   2.156   1.057
 4865TP3      O25621   0.584   2.514   2.156
 4865TP3     H125622   0.510   2.515   2.219
 4865TP3     H225623   0.578   2.603   2.115
 4866TP3      O25624   0.581   2.516   1.638
 4866TP3     H125625   0.486   2.498   1.626
 4866TP3     H225626   0.616   2.492   1.550
 4867TP3      O25627   1.135   2.573   1.515
 4867TP3     H125628   1.096   2.655   1.476
 4867TP3     H225629   1.201   2.551   1.448
 4868TP3      O25630   1.035   2.597   2.655
 4868TP3     H125631   0.987   2.516   2.684
 4868TP3     H225632   1.121   2.587   2.699
 4869TP3      O25633   1.240   2.525   1.802
 4869TP3     H125634   1.207   2.581   1.729
 4869TP3     H225635   1.244   2.439   1.756
 4870TP3      O25636   0.341   2.534   2.314
 4870TP3     H125637   0.356   2.572   2.402
 4870TP3     H225638   0.306   2.447   2.337
 4871TP3      O25639   0.679   2.273   1.002
 4871TP3     H125640   0.632   2.233   1.078
 4871TP3     H225641   0.609   2.319   0.954
 4872TP3      O25642   0.036   2.290   1.699
 4872TP3     H125643   0.080   2.263   1.784
 4872TP3     H225644   0.069   2.227   1.634
 4873TP3      O25645   0.137   2.326   1.253
 4873TP3     H125646   0.195   2.373   1.189
 4873TP3     H225647   0.070   2.394   1.266
 4874TP3      O25648   1.154   2.678   2.249
 4874TP3     H125649   1.195   2.607   2.194
 4874TP3     H225650   1.104   2.627   2.315
 4875TP3      O25651   0.839   2.279   1.738
 4875TP3     H125652   0.744   2.278   1.763
 4875TP3     H225653   0.883   2.256   1.821
 4876TP3      O25654   0.316   2.429   1.626
 4876TP3     H125655   0.229   2.452   1.589
 4876TP3     H225656   0.334   2.344   1.583
 4877TP3      O25657   0.679   2.441   1.390
 4877TP3     H125658   0.776   2.449   1.400
 4877TP3     H225659   0.655   2.507   1.323
 4878TP3      O25660   1.276   2.191   2.058
 4878TP3     H125661   1.210   2.204   2.129
 4878TP3     H225662   1.219   2.177   1.981
 4879TP3      O25663   0.553   2.555   1.144
 4879TP3     H125664   0.500   2.517   1.072
 4879TP3     H225665   0.635   2.578   1.097
 4880TP3      O25666   1.595   3.766   2.700
 4880TP3     H125667   1.626   3.802   2.615
 4880TP3     H225668   1.671   3.789   2.758
 4881TP3      O25669   0.380   2.999   2.650
 4881TP3     H125670   0.445   3.033   2.712
 4881TP3     H225671   0.298   3.014   2.701
 4882TP3      O25672   0.962   2.554   1.925
 4882TP3     H125673   1.025   2.503   1.873
 4882TP3     H225674   0.948   2.498   2.003
 4883TP3      O25675   0.466   2.169   1.569
 4883TP3     H125676   0.432   2.078   1.577
 4883TP3     H225677   0.545   2.156   1.516
 4884TP3      O25678   0.827   2.383   2.169
 4884TP3     H125679   0.746   2.439   2.174
 4884TP3     H225680   0.885   2.423   2.237
 4885TP3      O25681   0.886   3.005   1.341
 4885TP3     H125682   0.805   2.961   1.305
 4885TP3     H225683   0.858   3.026   1.432
 4886TP3      O25684   1.612   2.929   2.214
 4886TP3     H125685   1.656   2.988   2.149
 4886TP3     H225686   1.521   2.927   2.177
 4887TP3      O25687   1.267   2.287   1.157
 4887TP3     H125688   1.172   2.305   1.141
 4887TP3     H225689   1.302   2.371   1.193
 4888TP3      O25690   1.035   3.042   2.459
 4888TP3     H125691   1.003   2.993   2.536
 4888TP3     H225692   1.004   3.132   2.477
 4889TP3      O25693   1.340   2.487   1.311
 4889TP3     H125694   1.424   2.471   1.359
 4889TP3     H225695   1.357   2.570   1.264
 4890TP3      O25696   0.400   2.952   1.918
 4890TP3     H125697   0.459   2.942   1.841
 4890TP3     H225698   0.406   2.866   1.962
 4891TP3      O25699   1.093   3.153   1.242
 4891TP3     H125700   1.058   3.238   1.275
 4891TP3     H225701   1.021   3.091   1.266
 4892TP3      O25702   0.111   2.776   2.433
 4892TP3     H125703   0.130   2.737   2.520
 4892TP3     H225704   0.038   2.721   2.400
 4893TP3      O25705   0.796   2.746   2.655
 4893TP3     H125706   0.763   2.704   2.575
 4893TP3     H225707   0.888   2.713   2.656
 4894TP3      O25708   1.272   3.282   2.463
 4894TP3     H125709   1.179   3.294   2.436
 4894TP3     H225710   1.264   3.310   2.556
 4895TP3      O25711   1.829   2.492   1.297
 4895TP3     H125712   1.775   2.467   1.219
 4895TP3     H225713   1.838   2.587   1.278
 4896TP3      O25714   1.833   3.078   2.577
 4896TP3     H125715   1.744   3.100   2.542
 4896TP3     H225716   1.887   3.074   2.495
 4897TP3      O25717   1.652   3.376   1.334
 4897TP3     H125718   1.623   3.292   1.370
 4897TP3     H225719   1.696   3.351   1.250
 4898TP3      O25720   1.386   2.861   2.047
 4898TP3     H125721   1.292   2.844   2.031
 4898TP3     H225722   1.426   2.787   1.998
 4899TP3      O25723   0.636   3.296   1.659
 4899TP3     H125724   0.685   3.377   1.637
 4899TP3     H225725   0.549   3.316   1.622
 4900TP3      O25726   0.212   2.772   1.122
 4900TP3     H125727   0.268   2.842   1.160
 4900TP3     H225728   0.122   2.808   1.132
 4901TP3      O25729   0.773   3.063   1.602
 4901TP3     H125730   0.737   3.152   1.616
 4901TP3     H225731   0.709   3.007   1.652
 4902TP3      O25732   0.820   3.480   2.256
 4902TP3     H125733   0.871   3.556   2.222
 4902TP3     H225734   0.885   3.442   2.318
 4903TP3      O25735   0.643   3.556   1.557
 4903TP3     H125736   0.548   3.572   1.575
 4903TP3     H225737   0.682   3.640   1.588
 4904TP3      O25738   1.166   3.075   2.209
 4904TP3     H125739   1.141   3.058   2.303
 4904TP3     H225740   1.231   3.005   2.192
 4905TP3      O25741   1.410   3.190   1.122
 4905TP3     H125742   1.440   3.140   1.201
 4905TP3     H225743   1.316   3.168   1.126
 4906TP3      O25744   1.459   3.536   2.458
 4906TP3     H125745   1.385   3.487   2.417
 4906TP3     H225746   1.474   3.605   2.389
 4907TP3      O25747   1.855   3.621   1.149
 4907TP3     H125748   1.919   3.687   1.117
 4907TP3     H225749   1.783   3.681   1.178
 4908TP3      O25750   0.260   2.261   2.389
 4908TP3     H125751   0.173   2.302   2.400
 4908TP3     H225752   0.250   2.180   2.443
 4909TP3      O25753   1.483   3.051   1.348
 4909TP3     H125754   1.460   2.969   1.397
 4909TP3     H225755   1.580   3.050   1.358
 4910TP3      O25756   0.230   3.439   2.233
 4910TP3     H125757   0.254   3.346   2.238
 4910TP3     H225758   0.245   3.466   2.324
 4911TP3      O25759   0.824   3.296   0.973
 4911TP3     H125760   0.829   3.222   0.910
 4911TP3     H225761   0.771   3.253   1.044
 4912TP3      O25762   0.693   3.246   1.217
 4912TP3     H125763   0.731   3.194   1.289
 4912TP3     H225764   0.708   3.338   1.250
 4913TP3      O25765   0.351   2.971   1.267
 4913TP3     H125766   0.277   3.013   1.316
 4913TP3     H225767   0.398   3.049   1.231
 4914TP3      O25768   1.140   2.237   2.292
 4914TP3     H125769   1.205   2.252   2.362
 4914TP3     H225770   1.096   2.156   2.322
 4915TP3      O25771   1.205   2.192   1.408
 4915TP3     H125772   1.230   2.234   1.323
 4915TP3     H225773   1.264   2.236   1.470
 4916TP3      O25774   0.978   3.411   1.283
 4916TP3     H125775   0.895   3.463   1.293
 4916TP3     H225776   1.032   3.471   1.230
 4917TP3      O25777   0.935   2.367   1.487
 4917TP3     H125778   1.008   2.431   1.494
 4917TP3     H225779   0.904   2.355   1.579
 4918TP3      O25780   0.988   2.472   2.408
 4918TP3     H125781   0.997   2.529   2.487
 4918TP3     H225782   1.057   2.404   2.416
 4919TP3      O25783   1.020   2.069   1.578
 4919TP3     H125784   0.981   2.137   1.635
 4919TP3     H225785   1.088   2.124   1.531
 4920TP3      O25786   0.721   3.512   1.287
 4920TP3     H125787   0.724   3.592   1.229
 4920TP3     H225788   0.689   3.551   1.372
 4921TP3      O25789   0.584   2.187   1.244
 4921TP3     H125790   0.577   2.275   1.286
 4921TP3     H225791   0.674   2.161   1.271
 4922TP3      O25792   1.600   2.256   2.495
 4922TP3     H125793   1.509   2.291   2.479
 4922TP3     H225794   1.635   2.252   2.404
 4923TP3      O25795   1.470   2.640   1.889
 4923TP3     H125796   1.387   2.594   1.863
 4923TP3     H225797   1.518   2.571   1.940
 4924TP3      O25798   0.407   3.231   1.148
 4924TP3     H125799   0.478   3.288   1.184
 4924TP3     H225800   0.457   3.181   1.081
 4925TP3      O25801   0.238   2.495   1.060
 4925TP3     H125802   0.243   2.590   1.085
 4925TP3     H225803   0.148   2.486   1.027
 4926TP3      O25804   1.574   3.568   2.054
 4926TP3     H125805   1.568   3.634   1.983
 4926TP3     H225806   1.670   3.570   2.073
 4927TP3      O25807   0.321   1.980   1.942
 4927TP3     H125808   0.317   1.977   1.844
 4927TP3     H225809   0.282   1.892   1.963
 4928TP3      O25810   0.218   3.369   1.550
 4928TP3     H125811   0.130   3.407   1.538
 4928TP3     H225812   0.263   3.414   1.477
 4929TP3      O25813   0.152   3.631   2.681
 4929TP3     H125814   0.194   3.602   2.764
 4929TP3     H225815   0.095   3.555   2.659
 4930TP3      O25816   0.606   3.514   2.840
 4930TP3     H125817   0.696   3.486   2.861
 4930TP3     H225818   0.599   3.494   2.744
 4931TP3      O25819   1.023   3.479   0.986
 4931TP3     H125820   0.952   3.413   0.999
 4931TP3     H225821   1.094   3.420   0.956
 4932TP3      O25822   1.253   3.369   2.721
 4932TP3     H125823   1.223   3.279   2.746
 4932TP3     H225824   1.336   3.377   2.773
 4933TP3      O25825   1.478   3.447   0.994
 4933TP3     H125826   1.506   3.373   1.052
 4933TP3     H225827   1.557   3.463   0.941
 4934TP3      O25828   0.145   3.032   2.759
 4934TP3     H125829   0.148   2.934   2.759
 4934TP3     H225830   0.057   3.048   2.719
 4935TP3      O25831   0.561   3.046   0.976
 4935TP3     H125832   0.576   2.973   1.037
 4935TP3     H225833   0.640   3.036   0.919
 4936TP3      O25834   0.809   3.012   2.720
 4936TP3     H125835   0.767   3.049   2.640
 4936TP3     H225836   0.799   2.914   2.707
 4937TP3      O25837   1.110   3.159   0.960
 4937TP3     H125838   1.082   3.162   1.053
 4937TP3     H225839   1.093   3.063   0.941
 4938TP3      O25840   1.367   2.995   2.460
 4938TP3     H125841   1.450   3.047   2.458
 4938TP3     H225842   1.303   3.068   2.465
 4939TP3      O25843   0.209   2.722   2.715
 4939TP3     H125844   0.274   2.649   2.713
 4939TP3     H225845   0.202   2.736   2.811
 4940TP3      O25846   0.685   2.849   1.231
 4940TP3     H125847   0.629   2.792   1.287
 4940TP3     H225848   0.720   2.785   1.165
 4941TP3      O25849   0.605   2.626   2.451
 4941TP3     H125850   0.547   2.699   2.479
 4941TP3     H225851   0.653   2.666   2.376
 4942TP3      O25852   0.793   2.673   1.044
 4942TP3     H125853   0.779   2.668   0.948
 4942TP3     H225854   0.891   2.673   1.053
 4943TP3      O25855   1.128   2.894   2.808
 4943TP3     H125856   1.211   2.874   2.762
 4943TP3     H225857   1.099   2.809   2.844
 4944TP3      O25858   1.722   2.899   0.983
 4944TP3     H125859   1.708   2.867   0.892
 4944TP3     H225860   1.729   2.997   0.969
 4945TP3      O25861   0.666   2.367   2.556
 4945TP3     H125862   0.665   2.296   2.489
 4945TP3     H225863   0.646   2.447   2.503
 4946TP3      O25864   0.692   2.201   2.315
 4946TP3     H125865   0.742   2.250   2.245
 4946TP3     H225866   0.601   2.198   2.278
 4947TP3      O25867   0.842   2.755   2.338
 4947TP3     H125868   0.920   2.741   2.283
 4947TP3     H225869   0.805   2.838   2.303
 4948TP3      O25870   1.284   2.524   2.845
 4948TP3     H125871   1.309   2.431   2.835
 4948TP3     H225872   1.367   2.569   2.819
 4949TP3      O25873   1.419   2.807   2.651
 4949TP3     H125874   1.397   2.880   2.590
 4949TP3     H225875   1.517   2.806   2.641
 4950TP3      O25876   0.496   2.490   2.751
 4950TP3     H125877   0.422   2.429   2.736
 4950TP3     H225878   0.559   2.458   2.684
 4951TP3      O25879   0.770   1.947   2.352
 4951TP3     H125880   0.746   2.042   2.341
 4951TP3     H225881   0.698   1.904   2.302
 4952TP3      O25882   0.900   2.380   2.722
 4952TP3     H125883   0.859   2.358   2.808
 4952TP3     H225884   0.825   2.358   2.663
 4953TP3      O25885   1.172   2.297   2.628
 4953TP3     H125886   1.076   2.298   2.645
 4953TP3     H225887   1.201   2.232   2.695
 4954TP3      O25888   1.312   2.151   2.814
 4954TP3     H125889   1.323   2.056   2.826
 4954TP3     H225890   1.305   2.183   2.907
 4955TP3      O25891   0.311   2.281   2.725
 4955TP3     H125892   0.329   2.203   2.670
 4955TP3     H225893   0.298   2.242   2.814
 4956TP3      O25894   0.791   1.889   2.617
 4956TP3     H125895   0.858   1.818   2.625
 4956TP3     H225896   0.781   1.898   2.520
 4957TP3      O25897   0.839   2.054   2.821
 4957TP3     H125898   0.807   1.992   2.753
 4957TP3     H225899   0.769   2.121   2.831
 4958TP3      O25900   0.773   3.742   1.157
 4958TP3     H125901   0.870   3.745   1.162
 4958TP3     H225902   0.762   3.795   1.077
 4959TP3      O25903   0.135   3.199   1.105
 4959TP3     H125904   0.231   3.212   1.120
 4959TP3     H225905   0.138   3.141   1.026
 4960TP3      O25906   5.581   3.734   1.595
 4960TP3     H125907   5.502   3.702   1.546
 4960TP3     H225908   5.581   3.667   1.667
 4961TP3      O25909   0.088   3.552   1.785
 4961TP3     H125910   0.061   3.461   1.807
 4961TP3     H225911   0.127   3.580   1.871
 4962TP3      O25912   1.845   3.629   2.073
 4962TP3     H125913   1.852   3.640   2.170
 4962TP3     H225914   1.916   3.689   2.045
 4963TP3      O25915   1.802   3.587   2.368
 4963TP3     H125916   1.756   3.510   2.329
 4963TP3     H225917   1.845   3.542   2.442
 4964TP3      O25918   1.646   3.158   2.843
 4964TP3     H125919   1.556   3.158   2.880
 4964TP3     H225920   1.681   3.240   2.876
 4965TP3      O25921   1.775   2.998   1.379
 4965TP3     H125922   1.864   3.035   1.396
 4965TP3     H225923   1.774   2.927   1.447
 4966TP3      O25924   1.809   2.805   1.568
 4966TP3     H125925   1.732   2.753   1.600
 4966TP3     H225926   1.865   2.808   1.646
 4967TP3      O25927   1.798   3.066   2.070
 4967TP3     H125928   1.875   3.047   2.019
 4967TP3     H225929   1.794   3.164   2.058
 4968TP3      O25930   1.646   3.361   2.294
 4968TP3     H125931   1.577   3.397   2.352
 4968TP3     H225932   1.592   3.325   2.221
 4969TP3      O25933   1.849   2.787   1.210
 4969TP3     H125934   1.788   2.812   1.138
 4969TP3     H225935   1.829   2.859   1.274
 4970TP3      O25936   1.685   2.506   1.056
 4970TP3     H125937   1.691   2.571   0.986
 4970TP3     H225938   1.663   2.423   1.008
 4971TP3      O25939   1.598   2.650   1.633
 4971TP3     H125940   1.582   2.555   1.620
 4971TP3     H225941   1.565   2.664   1.724
 4972TP3      O25942   0.094   2.849   2.039
 4972TP3     H125943   0.106   2.854   1.942
 4972TP3     H225944   0.185   2.835   2.069
 4973TP3      O25945   1.685   2.842   2.592
 4973TP3     H125946   1.743   2.769   2.622
 4973TP3     H225947   1.744   2.920   2.603
 4974TP3      O25948   1.833   2.629   2.666
 4974TP3     H125949   1.744   2.591   2.649
 4974TP3     H225950   1.890   2.549   2.658
 4975TP3      O25951   1.609   2.253   0.971
 4975TP3     H125952   1.665   2.208   1.037
 4975TP3     H225953   1.521   2.216   0.986
 4976TP3      O25954   1.555   2.407   1.468
 4976TP3     H125955   1.586   2.315   1.485
 4976TP3     H225956   1.639   2.446   1.440
 4977TP3      O25957   1.628   2.464   2.020
 4977TP3     H125958   1.725   2.482   2.017
 4977TP3     H225959   1.611   2.475   2.115
 4978TP3      O25960   1.634   2.534   2.294
 4978TP3     H125961   1.545   2.562   2.325
 4978TP3     H225962   1.677   2.620   2.278
 4979TP3      O25963   0.081   2.387   2.645
 4979TP3     H125964   0.169   2.358   2.675
 4979TP3     H225965   0.022   2.312   2.661
 4980TP3      O25966   1.863   1.937   2.827
 4980TP3     H125967   1.905   1.872   2.768
 4980TP3     H225968   1.865   2.018   2.772
 4981TP3      O25969   1.631   2.139   1.476
 4981TP3     H125970   1.660   2.098   1.561
 4981TP3     H225971   1.575   2.070   1.436
 4982TP3      O25972   0.174   2.216   1.931
 4982TP3     H125973   0.226   2.135   1.954
 4982TP3     H225974   0.229   2.283   1.974
 4983TP3      O25975   0.060   2.524   2.062
 4983TP3     H125976   0.100   2.506   1.975
 4983TP3     H225977   0.073   2.620   2.065
 4984TP3      O25978   1.805   2.142   2.672
 4984TP3     H125979   1.717   2.181   2.660
 4984TP3     H225980   1.815   2.098   2.586
 4985TP3      O25981   1.811   2.139   1.136
 4985TP3     H125982   1.850   2.069   1.078
 4985TP3     H225983   1.883   2.204   1.139
 4986TP3      O25984   0.073   2.145   1.431
 4986TP3     H125985  -0.022   2.163   1.429
 4986TP3     H225986   0.107   2.205   1.362
 4987TP3      O25987   1.517   3.637   1.642
 4987TP3     H125988   1.587   3.610   1.579
 4987TP3     H225989   1.566   3.688   1.709
 4988TP3      O25990   0.057   2.010   2.252
 4988TP3     H125991   0.008   2.007   2.335
 4988TP3     H225992   0.002   2.074   2.205
 4989TP3      O25993   0.260   3.333   2.690
 4989TP3     H125994   0.176   3.355   2.648
 4989TP3     H225995   0.232   3.313   2.779
 4990TP3      O25996   0.550   3.429   2.317
 4990TP3     H125997   0.521   3.519   2.293
 4990TP3     H225998   0.644   3.436   2.289
 4991TP3      O25999   0.985   3.573   2.611
 4991TP3     H126000   0.999   3.542   2.703
 4991TP3     H226001   1.075   3.601   2.585
 4992TP3      O26002   1.213   3.695   2.544
 4992TP3     H126003   1.288   3.643   2.513
 4992TP3     H226004   1.251   3.743   2.619
 4993TP3      O26005   1.719   1.958   2.450
 4993TP3     H126006   1.635   1.990   2.412
 4993TP3     H226007   1.734   1.872   2.403
 4994TP3      O26008   0.288   3.752   2.315
 4994TP3     H126009   0.224   3.809   2.269
 4994TP3     H226010   0.253   3.741   2.404
 4995TP3      O26011   0.542   3.710   2.225
 4995TP3     H126012   0.453   3.731   2.264
 4995TP3     H226013   0.538   3.769   2.147
 4996TP3      O26014   1.012   3.701   2.139
 4996TP3     H126015   0.964   3.757   2.077
 4996TP3     H226016   1.026   3.762   2.215
 4997TP3      O26017   1.235   3.573   2.254
 4997TP3     H126018   1.157   3.608   2.207
 4997TP3     H226019   1.293   3.650   2.243
 4998TP3      O26020   1.495   3.733   2.264
 4998TP3     H126021   1.499   3.829   2.242
 4998TP3     H226022   1.518   3.695   2.177
 4999TP3      O26023   0.238   3.611   2.002
 4999TP3     H126024   0.232   3.578   2.094
 4999TP3     H226025   0.324   3.576   1.972
 5000TP3      O26026   0.447   3.488   1.876
 5000TP3     H126027   0.433   3.395   1.902
 5000TP3     H226028   0.532   3.507   1.920
 5001TP3      O26029   0.711   3.536   1.965
 5001TP3     H126030   0.725   3.443   1.941
 5001TP3     H226031   0.716   3.532   2.062
 5002TP3      O26032   1.063   2.093   1.886
 5002TP3     H126033   0.985   2.039   1.908
 5002TP3     H226034   1.102   2.044   1.813
 5003TP3      O26035   1.563   1.910   1.882
 5003TP3     H126036   1.635   1.960   1.835
 5003TP3     H226037   1.485   1.952   1.840
 5004TP3      O26038   1.736   2.030   1.709
 5004TP3     H126039   1.804   1.972   1.668
 5004TP3     H226040   1.788   2.113   1.722
 5005TP3      O26041   0.302   1.962   1.661
 5005TP3     H126042   0.219   1.949   1.610
 5005TP3     H226043   0.337   1.871   1.654
 5006TP3      O26044   0.190   1.937   1.246
 5006TP3     H126045   0.221   2.001   1.179
 5006TP3     H226046   0.120   1.987   1.291
 5007TP3      O26047   0.734   1.955   1.644
 5007TP3     H126048   0.824   1.989   1.630
 5007TP3     H226049   0.736   1.933   1.737
 5008TP3      O26050   1.315   1.950   1.798
 5008TP3     H126051   1.306   1.980   1.707
 5008TP3     H226052   1.260   1.869   1.798
 5009TP3      O26053   1.435   1.959   1.374
 5009TP3     H126054   1.359   2.017   1.360
 5009TP3     H226055   1.393   1.874   1.404
 5010TP3      O26056   0.169   3.541   1.329
 5010TP3     H126057   0.097   3.535   1.264
 5010TP3     H226058   0.166   3.635   1.352
 5011TP3      O26059   0.350   2.130   1.087
 5011TP3     H126060   0.403   2.070   1.032
 5011TP3     H226061   0.418   2.155   1.153
 5012TP3      O26062   0.852   2.154   1.327
 5012TP3     H126063   0.878   2.099   1.402
 5012TP3     H226064   0.866   2.243   1.367
 5013TP3      O26065   1.049   3.669   1.170
 5013TP3     H126066   1.143   3.681   1.149
 5013TP3     H226067   1.025   3.611   1.095
 5014TP3      O26068   1.711   3.609   1.449
 5014TP3     H126069   1.694   3.531   1.391
 5014TP3     H226070   1.704   3.684   1.385
 5015TP3      O26071   0.275   2.018   2.610
 5015TP3     H126072   0.232   1.937   2.644
 5015TP3     H226073   0.366   2.008   2.645
 5016TP3      O26074   0.479   1.956   2.776
 5016TP3     H126075   0.569   1.926   2.751
 5016TP3     H226076   0.447   1.872   2.814
 5017TP3      O26077   0.338   3.629   1.030
 5017TP3     H126078   0.310   3.658   1.119
 5017TP3     H226079   0.421   3.580   1.049
 5018TP3      O26080   1.640   3.491   2.649
 5018TP3     H126081   1.561   3.479   2.593
 5018TP3     H226082   1.630   3.585   2.672
 5019TP3      O26083   3.092   2.881   1.644
 5019TP3     H126084   3.078   2.978   1.649
 5019TP3     H226085   3.014   2.853   1.595
 5020TP3      O26086   3.322   3.106   1.827
 5020TP3     H126087   3.303   3.029   1.881
 5020TP3     H226088   3.345   3.169   1.897
 5021TP3      O26089   1.961   2.567   1.553
 5021TP3     H126090   1.916   2.652   1.541
 5021TP3     H226091   1.908   2.511   1.494
 5022TP3      O26092   3.022   3.529   1.886
 5022TP3     H126093   3.105   3.533   1.832
 5022TP3     H226094   3.045   3.579   1.964
 5023TP3      O26095   3.659   2.210   2.117
 5023TP3     H126096   3.683   2.266   2.195
 5023TP3     H226097   3.723   2.245   2.053
 5024TP3      O26098   3.122   2.492   2.085
 5024TP3     H126099   3.151   2.399   2.089
 5024TP3     H226100   3.116   2.510   1.989
 5025TP3      O26101   2.438   2.298   1.798
 5025TP3     H126102   2.450   2.382   1.751
 5025TP3     H226103   2.396   2.244   1.728
 5026TP3      O26104   3.209   2.299   1.638
 5026TP3     H126105   3.276   2.274   1.706
 5026TP3     H226106   3.260   2.365   1.589
 5027TP3      O26107   2.098   2.549   1.873
 5027TP3     H126108   2.158   2.487   1.919
 5027TP3     H226109   2.106   2.512   1.783
 5028TP3      O26110   2.604   2.692   1.805
 5028TP3     H126111   2.682   2.649   1.843
 5028TP3     H226112   2.567   2.621   1.751
 5029TP3      O26113   3.703   2.346   2.347
 5029TP3     H126114   3.649   2.426   2.329
 5029TP3     H226115   3.711   2.348   2.444
 5030TP3      O26116   2.331   2.188   2.198
 5030TP3     H126117   2.297   2.242   2.125
 5030TP3     H226118   2.267   2.210   2.270
 5031TP3      O26119   3.056   3.143   1.558
 5031TP3     H126120   3.038   3.117   1.467
 5031TP3     H226121   3.024   3.236   1.564
 5032TP3      O26122   3.381   2.245   1.850
 5032TP3     H126123   3.394   2.162   1.896
 5032TP3     H226124   3.460   2.291   1.884
 5033TP3      O26125   2.282   2.374   2.002
 5033TP3     H126126   2.348   2.434   2.042
 5033TP3     H226127   2.336   2.341   1.925
 5034TP3      O26128   2.426   3.163   2.333
 5034TP3     H126129   2.416   3.249   2.288
 5034TP3     H226130   2.335   3.149   2.367
 5035TP3      O26131   2.027   3.111   1.385
 5035TP3     H126132   2.012   3.148   1.296
 5035TP3     H226133   2.038   3.193   1.437
 5036TP3      O26134   3.395   3.283   2.064
 5036TP3     H126135   3.298   3.297   2.076
 5036TP3     H226136   3.423   3.373   2.041
 5037TP3      O26137   3.411   2.107   2.165
 5037TP3     H126138   3.359   2.179   2.204
 5037TP3     H226139   3.499   2.151   2.157
 5038TP3      O26140   2.713   1.925   1.948
 5038TP3     H126141   2.695   1.829   1.938
 5038TP3     H226142   2.624   1.954   1.980
 5039TP3      O26143   3.228   3.460   1.727
 5039TP3     H126144   3.259   3.390   1.667
 5039TP3     H226145   3.261   3.541   1.685
 5040TP3      O26146   3.349   3.247   1.569
 5040TP3     H126147   3.304   3.182   1.513
 5040TP3     H226148   3.345   3.203   1.656
 5041TP3      O26149   3.473   3.134   2.443
 5041TP3     H126150   3.510   3.058   2.391
 5041TP3     H226151   3.519   3.202   2.390
 5042TP3      O26152   2.946   2.798   1.396
 5042TP3     H126153   2.887   2.865   1.357
 5042TP3     H226154   3.025   2.807   1.340
 5043TP3      O26155   2.962   2.664   1.100
 5043TP3     H126156   3.034   2.667   1.165
 5043TP3     H226157   2.989   2.586   1.050
 5044TP3      O26158   3.687   2.740   2.222
 5044TP3     H126159   3.625   2.816   2.229
 5044TP3     H226160   3.742   2.774   2.148
 5045TP3      O26161   3.302   2.818   1.491
 5045TP3     H126162   3.228   2.845   1.551
 5045TP3     H226163   3.351   2.755   1.547
 5046TP3      O26164   3.281   2.638   2.407
 5046TP3     H126165   3.295   2.722   2.455
 5046TP3     H226166   3.222   2.670   2.335
 5047TP3      O26167   3.138   3.316   2.127
 5047TP3     H126168   3.100   3.386   2.182
 5047TP3     H226169   3.110   3.237   2.177
 5048TP3      O26170   3.189   2.747   1.257
 5048TP3     H126171   3.243   2.764   1.338
 5048TP3     H226172   3.237   2.795   1.185
 5049TP3      O26173   2.280   2.829   2.431
 5049TP3     H126174   2.291   2.886   2.509
 5049TP3     H226175   2.184   2.827   2.423
 5050TP3      O26176   2.953   3.414   1.610
 5050TP3     H126177   2.995   3.447   1.691
 5050TP3     H226178   2.906   3.493   1.582
 5051TP3      O26179   2.403   3.416   2.589
 5051TP3     H126180   2.403   3.394   2.495
 5051TP3     H226181   2.317   3.384   2.621
 5052TP3      O26182   3.560   1.915   1.257
 5052TP3     H126183   3.464   1.923   1.273
 5052TP3     H226184   3.578   1.998   1.208
 5053TP3      O26185   3.669   3.352   1.084
 5053TP3     H126186   3.690   3.445   1.103
 5053TP3     H226187   3.759   3.314   1.091
 5054TP3      O26188   1.964   3.033   2.340
 5054TP3     H126189   1.910   3.026   2.261
 5054TP3     H226190   1.974   2.939   2.365
 5055TP3      O26191   1.947   3.299   2.012
 5055TP3     H126192   2.042   3.309   2.013
 5055TP3     H226193   1.920   3.383   2.055
 5056TP3      O26194   3.765   3.380   2.586
 5056TP3     H126195   3.752   3.284   2.583
 5056TP3     H226196   3.677   3.405   2.620
 5057TP3      O26197   2.846   3.344   2.451
 5057TP3     H126198   2.866   3.417   2.513
 5057TP3     H226199   2.778   3.296   2.500
 5058TP3      O26200   2.867   3.699   1.423
 5058TP3     H126201   2.892   3.705   1.329
 5058TP3     H226202   2.906   3.780   1.465
 5059TP3      O26203   2.268   3.593   1.634
 5059TP3     H126204   2.282   3.551   1.721
 5059TP3     H226205   2.183   3.551   1.608
 5060TP3      O26206   3.212   3.629   1.142
 5060TP3     H126207   3.260   3.553   1.102
 5060TP3     H226208   3.213   3.607   1.239
 5061TP3      O26209   3.178   3.613   1.412
 5061TP3     H126210   3.089   3.637   1.444
 5061TP3     H226211   3.201   3.550   1.483
 5062TP3      O26212   3.481   2.589   2.573
 5062TP3     H126213   3.395   2.592   2.529
 5062TP3     H226214   3.480   2.498   2.610
 5063TP3      O26215   2.188   3.165   2.432
 5063TP3     H126216   2.213   3.127   2.519
 5063TP3     H226217   2.103   3.122   2.412
 5064TP3      O26218   2.462   2.015   2.021
 5064TP3     H126219   2.372   1.998   1.986
 5064TP3     H226220   2.443   2.092   2.078
 5065TP3      O26221   2.927   1.979   2.364
 5065TP3     H126222   2.964   1.934   2.442
 5065TP3     H226223   2.830   1.971   2.376
 5066TP3      O26224   3.232   2.366   2.437
 5066TP3     H126225   3.202   2.346   2.528
 5066TP3     H226226   3.240   2.464   2.431
 5067TP3      O26227   3.331   2.852   1.053
 5067TP3     H126228   3.321   2.833   0.957
 5067TP3     H226229   3.418   2.896   1.049
 5068TP3      O26230   2.886   2.243   1.090
 5068TP3     H126231   2.854   2.232   1.182
 5068TP3     H226232   2.859   2.156   1.057
 5069TP3      O26233   2.467   2.508   2.152
 5069TP3     H126234   2.394   2.513   2.217
 5069TP3     H226235   2.469   2.598   2.116
 5070TP3      O26236   2.462   2.520   1.634
 5070TP3     H126237   2.369   2.491   1.624
 5070TP3     H226238   2.500   2.490   1.549
 5071TP3      O26239   3.023   2.574   1.516
 5071TP3     H126240   2.981   2.654   1.476
 5071TP3     H226241   3.088   2.551   1.448
 5072TP3      O26242   3.126   2.521   1.803
 5072TP3     H126243   3.089   2.583   1.737
 5072TP3     H226244   3.130   2.441   1.747
 5073TP3      O26245   2.230   2.530   2.311
 5073TP3     H126246   2.250   2.570   2.397
 5073TP3     H226247   2.192   2.446   2.340
 5074TP3      O26248   2.563   2.266   0.998
 5074TP3     H126249   2.517   2.235   1.079
 5074TP3     H226250   2.496   2.321   0.955
 5075TP3      O26251   1.899   2.239   1.722
 5075TP3     H126252   1.970   2.235   1.790
 5075TP3     H226253   1.945   2.211   1.640
 5076TP3      O26254   2.020   2.311   1.248
 5076TP3     H126255   2.078   2.367   1.193
 5076TP3     H226256   1.956   2.379   1.279
 5077TP3      O26257   3.057   2.683   2.259
 5077TP3     H126258   3.073   2.614   2.191
 5077TP3     H226259   2.989   2.640   2.313
 5078TP3      O26260   2.727   2.266   1.736
 5078TP3     H126261   2.633   2.277   1.759
 5078TP3     H226262   2.768   2.264   1.823
 5079TP3      O26263   2.200   2.425   1.628
 5079TP3     H126264   2.118   2.454   1.584
 5079TP3     H226265   2.227   2.344   1.581
 5080TP3      O26266   2.567   2.441   1.392
 5080TP3     H126267   2.664   2.444   1.398
 5080TP3     H226268   2.544   2.500   1.319
 5081TP3      O26269   3.174   2.229   2.089
 5081TP3     H126270   3.106   2.228   2.161
 5081TP3     H226271   3.123   2.259   2.013
 5082TP3      O26272   2.439   2.561   1.143
 5082TP3     H126273   2.388   2.515   1.074
 5082TP3     H226274   2.522   2.578   1.096
 5083TP3      O26275   3.477   3.766   2.695
 5083TP3     H126276   3.509   3.798   2.609
 5083TP3     H226277   3.553   3.792   2.752
 5084TP3      O26278   2.255   3.011   2.655
 5084TP3     H126279   2.323   3.042   2.716
 5084TP3     H226280   2.174   3.010   2.711
 5085TP3      O26281   2.836   2.546   1.917
 5085TP3     H126282   2.910   2.505   1.872
 5085TP3     H226283   2.833   2.503   2.003
 5086TP3      O26284   2.350   2.165   1.571
 5086TP3     H126285   2.320   2.072   1.574
 5086TP3     H226286   2.429   2.158   1.516
 5087TP3      O26287   2.712   2.383   2.163
 5087TP3     H126288   2.632   2.439   2.168
 5087TP3     H226289   2.769   2.421   2.233
 5088TP3      O26290   2.770   3.012   1.339
 5088TP3     H126291   2.698   2.958   1.307
 5088TP3     H226292   2.750   3.024   1.435
 5089TP3      O26293   3.459   2.878   2.199
 5089TP3     H126294   3.524   2.950   2.182
 5089TP3     H226295   3.380   2.919   2.160
 5090TP3      O26296   3.152   2.287   1.158
 5090TP3     H126297   3.057   2.305   1.141
 5090TP3     H226298   3.187   2.371   1.193
 5091TP3      O26299   3.226   2.486   1.313
 5091TP3     H126300   3.311   2.471   1.360
 5091TP3     H226301   3.242   2.569   1.265
 5092TP3      O26302   2.984   3.154   1.246
 5092TP3     H126303   2.946   3.240   1.272
 5092TP3     H226304   2.910   3.093   1.266
 5093TP3      O26305   1.982   2.785   2.446
 5093TP3     H126306   1.993   2.743   2.534
 5093TP3     H226307   1.919   2.725   2.404
 5094TP3      O26308   3.719   2.493   1.297
 5094TP3     H126309   3.661   2.469   1.220
 5094TP3     H226310   3.725   2.589   1.278
 5095TP3      O26311   3.719   3.083   2.572
 5095TP3     H126312   3.629   3.101   2.537
 5095TP3     H226313   3.767   3.075   2.487
 5096TP3      O26314   3.540   3.376   1.330
 5096TP3     H126315   3.508   3.293   1.369
 5096TP3     H226316   3.580   3.350   1.246
 5097TP3      O26317   3.262   2.869   2.029
 5097TP3     H126318   3.173   2.836   2.040
 5097TP3     H226319   3.313   2.789   2.003
 5098TP3      O26320   2.514   3.293   1.662
 5098TP3     H126321   2.571   3.368   1.637
 5098TP3     H226322   2.431   3.324   1.622
 5099TP3      O26323   2.102   2.779   1.112
 5099TP3     H126324   2.149   2.848   1.158
 5099TP3     H226325   2.008   2.801   1.134
 5100TP3      O26326   2.647   3.062   1.595
 5100TP3     H126327   2.631   3.154   1.625
 5100TP3     H226328   2.606   3.014   1.668
 5101TP3      O26329   2.702   3.484   2.252
 5101TP3     H126330   2.755   3.559   2.221
 5101TP3     H226331   2.765   3.444   2.316
 5102TP3      O26332   2.525   3.556   1.551
 5102TP3     H126333   2.431   3.577   1.572
 5102TP3     H226334   2.571   3.636   1.584
 5103TP3      O26335   3.299   3.192   1.120
 5103TP3     H126336   3.326   3.143   1.200
 5103TP3     H226337   3.205   3.169   1.123
 5104TP3      O26338   3.341   3.535   2.456
 5104TP3     H126339   3.271   3.491   2.407
 5104TP3     H226340   3.361   3.607   2.393
 5105TP3      O26341   3.739   3.620   1.146
 5105TP3     H126342   3.805   3.688   1.123
 5105TP3     H226343   3.667   3.681   1.176
 5106TP3      O26344   2.146   2.258   2.395
 5106TP3     H126345   2.056   2.294   2.399
 5106TP3     H226346   2.139   2.178   2.448
 5107TP3      O26347   3.369   3.048   1.344
 5107TP3     H126348   3.346   2.968   1.396
 5107TP3     H226349   3.465   3.051   1.359
 5108TP3      O26350   2.110   3.435   2.237
 5108TP3     H126351   2.139   3.344   2.250
 5108TP3     H226352   2.135   3.472   2.322
 5109TP3      O26353   2.712   3.295   0.975
 5109TP3     H126354   2.714   3.224   0.908
 5109TP3     H226355   2.657   3.252   1.043
 5110TP3      O26356   2.574   3.239   1.231
 5110TP3     H126357   2.636   3.205   1.296
 5110TP3     H226358   2.589   3.336   1.245
 5111TP3      O26359   3.018   2.229   2.299
 5111TP3     H126360   3.095   2.249   2.356
 5111TP3     H226361   2.981   2.145   2.333
 5112TP3      O26362   3.091   2.190   1.407
 5112TP3     H126363   3.113   2.231   1.322
 5112TP3     H226364   3.154   2.236   1.464
 5113TP3      O26365   2.857   3.404   1.271
 5113TP3     H126366   2.784   3.465   1.297
 5113TP3     H226367   2.919   3.468   1.234
 5114TP3      O26368   2.824   2.366   1.487
 5114TP3     H126369   2.893   2.434   1.496
 5114TP3     H226370   2.787   2.358   1.577
 5115TP3      O26371   2.880   2.482   2.393
 5115TP3     H126372   2.872   2.535   2.474
 5115TP3     H226373   2.943   2.411   2.411
 5116TP3      O26374   2.906   2.070   1.576
 5116TP3     H126375   2.860   2.141   1.625
 5116TP3     H226376   2.969   2.126   1.523
 5117TP3      O26377   2.608   3.513   1.289
 5117TP3     H126378   2.613   3.593   1.232
 5117TP3     H226379   2.579   3.552   1.374
 5118TP3      O26380   2.468   2.185   1.243
 5118TP3     H126381   2.462   2.272   1.286
 5118TP3     H226382   2.559   2.159   1.271
 5119TP3      O26383   3.461   2.212   2.424
 5119TP3     H126384   3.405   2.277   2.471
 5119TP3     H226385   3.524   2.270   2.381
 5120TP3      O26386   3.355   2.641   1.887
 5120TP3     H126387   3.271   2.597   1.865
 5120TP3     H226388   3.405   2.574   1.937
 5121TP3      O26389   2.291   3.229   1.147
 5121TP3     H126390   2.356   3.291   1.182
 5121TP3     H226391   2.344   3.185   1.078
 5122TP3      O26392   2.123   2.497   1.066
 5122TP3     H126393   2.129   2.593   1.087
 5122TP3     H226394   2.035   2.486   1.030
 5123TP3      O26395   3.456   3.572   2.062
 5123TP3     H126396   3.454   3.631   1.984
 5123TP3     H226397   3.553   3.564   2.074
 5124TP3      O26398   2.208   1.973   1.944
 5124TP3     H126399   2.193   1.975   1.847
 5124TP3     H226400   2.169   1.887   1.966
 5125TP3      O26401   2.099   3.376   1.561
 5125TP3     H126402   2.011   3.414   1.546
 5125TP3     H226403   2.143   3.408   1.481
 5126TP3      O26404   2.020   3.633   2.681
 5126TP3     H126405   2.081   3.612   2.753
 5126TP3     H226406   1.978   3.547   2.665
 5127TP3      O26407   2.493   3.529   2.838
 5127TP3     H126408   2.559   3.467   2.873
 5127TP3     H226409   2.479   3.494   2.748
 5128TP3      O26410   2.909   3.479   0.981
 5128TP3     H126411   2.838   3.413   0.998
 5128TP3     H226412   2.980   3.418   0.956
 5129TP3      O26413   3.131   3.370   2.719
 5129TP3     H126414   3.108   3.281   2.746
 5129TP3     H226415   3.215   3.383   2.767
 5130TP3      O26416   3.363   3.449   0.998
 5130TP3     H126417   3.390   3.373   1.053
 5130TP3     H226418   3.440   3.466   0.943
 5131TP3      O26419   2.014   3.001   2.779
 5131TP3     H126420   2.025   2.910   2.747
 5131TP3     H226421   1.939   3.031   2.724
 5132TP3      O26422   2.455   3.046   0.985
 5132TP3     H126423   2.459   2.959   1.023
 5132TP3     H226424   2.525   3.038   0.917
 5133TP3      O26425   2.996   3.159   0.957
 5133TP3     H126426   2.972   3.163   1.051
 5133TP3     H226427   2.980   3.063   0.940
 5134TP3      O26428   3.263   2.992   2.456
 5134TP3     H126429   3.341   3.051   2.451
 5134TP3     H226430   3.192   3.057   2.446
 5135TP3      O26431   2.104   2.738   2.724
 5135TP3     H126432   2.144   2.652   2.706
 5135TP3     H226433   2.080   2.727   2.816
 5136TP3      O26434   2.490   2.625   2.447
 5136TP3     H126435   2.437   2.699   2.482
 5136TP3     H226436   2.535   2.665   2.373
 5137TP3      O26437   2.678   2.678   1.046
 5137TP3     H126438   2.661   2.669   0.950
 5137TP3     H226439   2.776   2.673   1.052
 5138TP3      O26440   3.605   2.900   0.983
 5138TP3     H126441   3.592   2.866   0.893
 5138TP3     H226442   3.617   2.997   0.968
 5139TP3      O26443   2.503   2.348   2.540
 5139TP3     H126444   2.552   2.292   2.479
 5139TP3     H226445   2.526   2.439   2.513
 5140TP3      O26446   2.578   2.197   2.313
 5140TP3     H126447   2.626   2.249   2.245
 5140TP3     H226448   2.485   2.199   2.280
 5141TP3      O26449   3.304   2.815   2.657
 5141TP3     H126450   3.282   2.882   2.589
 5141TP3     H226451   3.399   2.803   2.637
 5142TP3      O26452   2.659   1.948   2.351
 5142TP3     H126453   2.634   2.043   2.342
 5142TP3     H226454   2.584   1.908   2.303
 5143TP3      O26455   3.053   2.301   2.646
 5143TP3     H126456   2.960   2.287   2.623
 5143TP3     H226457   3.084   2.221   2.691
 5144TP3      O26458   2.171   2.283   2.730
 5144TP3     H126459   2.215   2.219   2.672
 5144TP3     H226460   2.196   2.250   2.818
 5145TP3      O26461   2.681   1.900   2.620
 5145TP3     H126462   2.738   1.821   2.626
 5145TP3     H226463   2.663   1.901   2.524
 5146TP3      O26464   2.658   3.741   1.156
 5146TP3     H126465   2.755   3.745   1.166
 5146TP3     H226466   2.648   3.796   1.077
 5147TP3      O26467   2.011   3.195   1.104
 5147TP3     H126468   2.107   3.210   1.114
 5147TP3     H226469   2.012   3.138   1.023
 5148TP3      O26470   1.893   3.730   1.598
 5148TP3     H126471   1.821   3.681   1.553
 5148TP3     H226472   1.922   3.666   1.666
 5149TP3      O26473   1.979   3.549   1.788
 5149TP3     H126474   1.940   3.463   1.810
 5149TP3     H226475   2.005   3.583   1.875
 5150TP3      O26476   3.733   3.635   2.072
 5150TP3     H126477   3.737   3.637   2.169
 5150TP3     H226478   3.805   3.693   2.047
 5151TP3      O26479   3.693   3.582   2.368
 5151TP3     H126480   3.643   3.509   2.327
 5151TP3     H226481   3.732   3.534   2.443
 5152TP3      O26482   3.532   3.159   2.843
 5152TP3     H126483   3.442   3.161   2.877
 5152TP3     H226484   3.569   3.242   2.878
 5153TP3      O26485   3.666   2.994   1.376
 5153TP3     H126486   3.751   3.035   1.399
 5153TP3     H226487   3.660   2.927   1.448
 5154TP3      O26488   3.697   2.805   1.571
 5154TP3     H126489   3.620   2.758   1.610
 5154TP3     H226490   3.758   2.813   1.647
 5155TP3      O26491   3.691   3.087   1.968
 5155TP3     H126492   3.745   3.026   2.021
 5155TP3     H226493   3.679   3.156   2.035
 5156TP3      O26494   3.533   3.368   2.296
 5156TP3     H126495   3.459   3.391   2.353
 5156TP3     H226496   3.488   3.318   2.224
 5157TP3      O26497   3.729   2.784   1.209
 5157TP3     H126498   3.670   2.812   1.136
 5157TP3     H226499   3.715   2.856   1.273
 5158TP3      O26500   3.569   2.504   1.055
 5158TP3     H126501   3.576   2.569   0.985
 5158TP3     H226502   3.548   2.421   1.007
 5159TP3      O26503   3.479   2.646   1.628
 5159TP3     H126504   3.468   2.551   1.620
 5159TP3     H226505   3.455   2.663   1.721
 5160TP3      O26506   3.569   2.857   2.607
 5160TP3     H126507   3.622   2.774   2.605
 5160TP3     H226508   3.637   2.925   2.595
 5161TP3      O26509   3.722   2.631   2.661
 5161TP3     H126510   3.631   2.597   2.652
 5161TP3     H226511   3.772   2.547   2.663
 5162TP3      O26512   3.494   2.253   0.972
 5162TP3     H126513   3.550   2.208   1.037
 5162TP3     H226514   3.406   2.215   0.986
 5163TP3      O26515   3.442   2.408   1.466
 5163TP3     H126516   3.473   2.316   1.483
 5163TP3     H226517   3.526   2.448   1.440
 5164TP3      O26518   3.511   2.458   2.015
 5164TP3     H126519   3.608   2.477   2.018
 5164TP3     H226520   3.493   2.478   2.109
 5165TP3      O26521   3.512   2.532   2.281
 5165TP3     H126522   3.433   2.566   2.327
 5165TP3     H226523   3.562   2.616   2.267
 5166TP3      O26524   1.939   2.383   2.646
 5166TP3     H126525   2.033   2.365   2.671
 5166TP3     H226526   1.896   2.301   2.677
 5167TP3      O26527   3.749   1.935   2.832
 5167TP3     H126528   3.779   1.874   2.765
 5167TP3     H226529   3.751   2.019   2.782
 5168TP3      O26530   3.517   2.139   1.476
 5168TP3     H126531   3.546   2.097   1.561
 5168TP3     H226532   3.461   2.070   1.436
 5169TP3      O26533   2.065   2.212   1.937
 5169TP3     H126534   2.111   2.129   1.959
 5169TP3     H226535   2.127   2.279   1.969
 5170TP3      O26536   1.888   2.523   2.034
 5170TP3     H126537   1.943   2.482   1.964
 5170TP3     H226538   1.950   2.588   2.068
 5171TP3      O26539   3.722   2.135   2.659
 5171TP3     H126540   3.635   2.182   2.672
 5171TP3     H226541   3.698   2.086   2.579
 5172TP3      O26542   3.697   2.139   1.136
 5172TP3     H126543   3.736   2.069   1.079
 5172TP3     H226544   3.769   2.204   1.138
 5173TP3      O26545   1.930   2.149   1.448
 5173TP3     H126546   1.836   2.157   1.428
 5173TP3     H226547   1.969   2.194   1.371
 5174TP3      O26548   3.407   3.639   1.639
 5174TP3     H126549   3.477   3.611   1.579
 5174TP3     H226550   3.452   3.690   1.707
 5175TP3      O26551   1.925   2.009   2.275
 5175TP3     H126552   1.857   1.987   2.342
 5175TP3     H226553   1.877   2.073   2.219
 5176TP3      O26554   2.147   3.336   2.690
 5176TP3     H126555   2.061   3.349   2.648
 5176TP3     H226556   2.124   3.322   2.783
 5177TP3      O26557   2.431   3.431   2.303
 5177TP3     H126558   2.410   3.524   2.292
 5177TP3     H226559   2.528   3.437   2.293
 5178TP3      O26560   2.873   3.567   2.606
 5178TP3     H126561   2.887   3.536   2.699
 5178TP3     H226562   2.962   3.604   2.584
 5179TP3      O26563   3.096   3.700   2.537
 5179TP3     H126564   3.169   3.640   2.516
 5179TP3     H226565   3.131   3.744   2.618
 5180TP3      O26566   3.607   1.956   2.453
 5180TP3     H126567   3.525   1.993   2.417
 5180TP3     H226568   3.614   1.872   2.403
 5181TP3      O26569   2.181   3.753   2.314
 5181TP3     H126570   2.108   3.805   2.277
 5181TP3     H226571   2.153   3.740   2.405
 5182TP3      O26572   2.424   3.703   2.211
 5182TP3     H126573   2.341   3.725   2.259
 5182TP3     H226574   2.423   3.773   2.144
 5183TP3      O26575   2.894   3.697   2.145
 5183TP3     H126576   2.854   3.751   2.075
 5183TP3     H226577   2.911   3.764   2.215
 5184TP3      O26578   3.124   3.580   2.245
 5184TP3     H126579   3.040   3.606   2.204
 5184TP3     H226580   3.176   3.661   2.239
 5185TP3      O26581   3.381   3.735   2.263
 5185TP3     H126582   3.386   3.831   2.240
 5185TP3     H226583   3.407   3.695   2.177
 5186TP3      O26584   2.130   3.619   2.013
 5186TP3     H126585   2.119   3.569   2.097
 5186TP3     H226586   2.210   3.577   1.974
 5187TP3      O26587   2.332   3.485   1.882
 5187TP3     H126588   2.328   3.392   1.904
 5187TP3     H226589   2.420   3.509   1.919
 5188TP3      O26590   2.585   3.529   1.968
 5188TP3     H126591   2.623   3.446   1.940
 5188TP3     H226592   2.597   3.526   2.065
 5189TP3      O26593   2.936   2.082   1.878
 5189TP3     H126594   2.852   2.036   1.900
 5189TP3     H226595   2.957   2.041   1.793
 5190TP3      O26596   3.458   1.907   1.882
 5190TP3     H126597   3.522   1.962   1.829
 5190TP3     H226598   3.371   1.935   1.848
 5191TP3      O26599   3.616   2.036   1.709
 5191TP3     H126600   3.682   1.973   1.672
 5191TP3     H226601   3.675   2.115   1.722
 5192TP3      O26602   2.182   1.961   1.664
 5192TP3     H126603   2.103   1.949   1.609
 5192TP3     H226604   2.221   1.871   1.656
 5193TP3      O26605   2.052   1.938   1.230
 5193TP3     H126606   2.106   2.004   1.182
 5193TP3     H226607   2.000   1.994   1.289
 5194TP3      O26608   2.619   1.952   1.643
 5194TP3     H126609   2.707   1.989   1.629
 5194TP3     H226610   2.620   1.933   1.736
 5195TP3      O26611   3.206   1.946   1.784
 5195TP3     H126612   3.193   1.959   1.688
 5195TP3     H226613   3.165   1.857   1.798
 5196TP3      O26614   3.321   1.959   1.371
 5196TP3     H126615   3.245   2.017   1.360
 5196TP3     H226616   3.279   1.875   1.402
 5197TP3      O26617   2.041   3.535   1.346
 5197TP3     H126618   1.978   3.526   1.272
 5197TP3     H226619   2.041   3.632   1.354
 5198TP3      O26620   2.231   2.131   1.091
 5198TP3     H126621   2.284   2.073   1.035
 5198TP3     H226622   2.300   2.166   1.151
 5199TP3      O26623   2.734   2.156   1.328
 5199TP3     H126624   2.764   2.099   1.401
 5199TP3     H226625   2.752   2.244   1.367
 5200TP3      O26626   2.934   3.671   1.164
 5200TP3     H126627   3.029   3.680   1.149
 5200TP3     H226628   2.912   3.610   1.090
 5201TP3      O26629   3.599   3.608   1.446
 5201TP3     H126630   3.579   3.530   1.390
 5201TP3     H226631   3.592   3.683   1.382
 5202TP3      O26632   2.166   2.018   2.609
 5202TP3     H126633   2.125   1.939   2.649
 5202TP3     H226634   2.254   2.013   2.652
 5203TP3      O26635   2.359   1.947   2.779
 5203TP3     H126636   2.452   1.930   2.755
 5203TP3     H226637   2.338   1.867   2.829
 5204TP3      O26638   2.227   3.637   1.036
 5204TP3     H126639   2.194   3.658   1.124
 5204TP3     H226640   2.301   3.576   1.053
 5205TP3      O26641   3.206   1.887   2.793
 5205TP3     H126642   3.227   1.840   2.874
 5205TP3     H226643   3.295   1.892   2.751
 5206TP3      O26644   3.527   3.494   2.652
 5206TP3     H126645   3.449   3.477   2.595
 5206TP3     H226646   3.515   3.590   2.668
 5207TP3      O26647   4.959   2.880   1.654
 5207TP3     H126648   4.968   2.977   1.642
 5207TP3     H226649   4.900   2.856   1.581
 5208TP3      O26650   4.893   2.761   1.996
 5208TP3     H126651   4.887   2.713   2.083
 5208TP3     H226652   4.863   2.695   1.931
 5209TP3      O26653   4.097   2.763   2.145
 5209TP3     H126654   4.099   2.699   2.219
 5209TP3     H226655   4.159   2.829   2.177
 5210TP3      O26656   5.212   3.108   1.828
 5210TP3     H126657   5.195   3.025   1.874
 5210TP3     H226658   5.238   3.164   1.903
 5211TP3      O26659   4.182   3.222   1.994
 5211TP3     H126660   4.151   3.131   1.973
 5211TP3     H226661   4.277   3.203   2.002
 5212TP3      O26662   3.847   2.567   1.551
 5212TP3     H126663   3.800   2.652   1.545
 5212TP3     H226664   3.794   2.513   1.491
 5213TP3      O26665   3.924   2.795   1.775
 5213TP3     H126666   3.952   2.710   1.814
 5213TP3     H226667   3.984   2.806   1.700
 5214TP3      O26668   4.932   3.615   1.853
 5214TP3     H126669   4.999   3.550   1.820
 5214TP3     H226670   4.910   3.575   1.937
 5215TP3      O26671   4.694   3.049   2.061
 5215TP3     H126672   4.723   3.076   1.974
 5215TP3     H226673   4.773   3.073   2.116
 5216TP3      O26674   5.002   2.484   2.084
 5216TP3     H126675   5.035   2.392   2.088
 5216TP3     H226676   5.005   2.498   1.988
 5217TP3      O26677   4.319   2.297   1.796
 5217TP3     H126678   4.335   2.379   1.745
 5217TP3     H226679   4.282   2.239   1.726
 5218TP3      O26680   5.096   2.307   1.643
 5218TP3     H126681   5.163   2.268   1.703
 5218TP3     H226682   5.152   2.365   1.590
 5219TP3      O26683   3.980   2.541   1.872
 5219TP3     H126684   4.047   2.489   1.920
 5219TP3     H226685   3.996   2.507   1.781
 5220TP3      O26686   4.506   2.697   1.811
 5220TP3     H126687   4.565   2.626   1.843
 5220TP3     H226688   4.450   2.640   1.753
 5221TP3      O26689   4.216   2.189   2.202
 5221TP3     H126690   4.186   2.247   2.129
 5221TP3     H226691   4.149   2.211   2.271
 5222TP3      O26692   4.933   3.132   1.558
 5222TP3     H126693   4.920   3.112   1.464
 5222TP3     H226694   4.911   3.228   1.562
 5223TP3      O26695   4.466   2.958   2.210
 5223TP3     H126696   4.395   3.012   2.253
 5223TP3     H226697   4.534   3.025   2.198
 5224TP3      O26698   5.284   2.236   1.827
 5224TP3     H126699   5.248   2.169   1.886
 5224TP3     H226700   5.342   2.284   1.888
 5225TP3      O26701   4.176   2.372   2.009
 5225TP3     H126702   4.236   2.444   2.039
 5225TP3     H226703   4.225   2.336   1.931
 5226TP3      O26704   4.306   3.154   2.308
 5226TP3     H126705   4.304   3.246   2.277
 5226TP3     H226706   4.217   3.147   2.349
 5227TP3      O26707   3.916   3.110   1.384
 5227TP3     H126708   3.895   3.153   1.299
 5227TP3     H226709   3.922   3.186   1.445
 5228TP3      O26710   5.268   3.282   2.064
 5228TP3     H126711   5.171   3.298   2.075
 5228TP3     H226712   5.302   3.371   2.044
 5229TP3      O26713   5.321   2.115   2.196
 5229TP3     H126714   5.236   2.162   2.187
 5229TP3     H226715   5.376   2.164   2.135
 5230TP3      O26716   4.599   1.923   1.946
 5230TP3     H126717   4.583   1.827   1.938
 5230TP3     H226718   4.513   1.955   1.981
 5231TP3      O26719   5.102   3.463   1.719
 5231TP3     H126720   5.143   3.388   1.670
 5231TP3     H226721   5.156   3.538   1.686
 5232TP3      O26722   5.220   3.249   1.563
 5232TP3     H126723   5.190   3.175   1.509
 5232TP3     H226724   5.229   3.206   1.651
 5233TP3      O26725   5.381   3.114   2.434
 5233TP3     H126726   5.406   3.050   2.366
 5233TP3     H226727   5.405   3.198   2.388
 5234TP3      O26728   4.835   2.802   1.401
 5234TP3     H126729   4.769   2.862   1.359
 5234TP3     H226730   4.909   2.809   1.338
 5235TP3      O26731   4.847   2.667   1.098
 5235TP3     H126732   4.918   2.668   1.164
 5235TP3     H226733   4.874   2.588   1.049
 5236TP3      O26734   5.171   2.812   1.487
 5236TP3     H126735   5.105   2.845   1.552
 5236TP3     H226736   5.231   2.760   1.545
 5237TP3      O26737   5.174   2.643   2.403
 5237TP3     H126738   5.166   2.720   2.463
 5237TP3     H226739   5.111   2.669   2.333
 5238TP3      O26740   4.344   2.886   1.684
 5238TP3     H126741   4.308   2.848   1.601
 5238TP3     H226742   4.404   2.815   1.716
 5239TP3      O26743   4.473   3.221   1.950
 5239TP3     H126744   4.475   3.181   1.862
 5239TP3     H226745   4.552   3.190   1.996
 5240TP3      O26746   4.380   2.755   2.054
 5240TP3     H126747   4.419   2.771   1.967
 5240TP3     H226748   4.409   2.831   2.110
 5241TP3      O26749   5.008   3.319   2.121
 5241TP3     H126750   4.992   3.385   2.190
 5241TP3     H226751   4.991   3.235   2.168
 5242TP3      O26752   4.473   3.211   2.519
 5242TP3     H126753   4.423   3.276   2.573
 5242TP3     H226754   4.407   3.187   2.452
 5243TP3      O26755   5.073   2.744   1.252
 5243TP3     H126756   5.121   2.765   1.335
 5243TP3     H226757   5.120   2.794   1.182
 5244TP3      O26758   4.169   2.820   2.432
 5244TP3     H126759   4.174   2.887   2.502
 5244TP3     H226760   4.073   2.828   2.414
 5245TP3      O26761   4.842   3.416   1.602
 5245TP3     H126762   4.881   3.445   1.686
 5245TP3     H226763   4.788   3.491   1.577
 5246TP3      O26764   4.301   3.401   2.598
 5246TP3     H126765   4.293   3.402   2.501
 5246TP3     H226766   4.207   3.391   2.622
 5247TP3      O26767   5.437   1.914   1.253
 5247TP3     H126768   5.340   1.923   1.274
 5247TP3     H226769   5.455   1.994   1.205
 5248TP3      O26770   4.236   2.785   1.447
 5248TP3     H126771   4.208   2.864   1.397
 5248TP3     H226772   4.173   2.718   1.419
 5249TP3      O26773   3.926   3.006   2.348
 5249TP3     H126774   3.861   3.034   2.279
 5249TP3     H226775   3.878   2.924   2.372
 5250TP3      O26776   3.831   3.325   2.001
 5250TP3     H126777   3.920   3.292   2.018
 5250TP3     H226778   3.821   3.393   2.067
 5251TP3      O26779   4.743   3.331   2.464
 5251TP3     H126780   4.747   3.412   2.519
 5251TP3     H226781   4.658   3.290   2.492
 5252TP3      O26782   4.795   3.704   1.445
 5252TP3     H126783   4.778   3.700   1.349
 5252TP3     H226784   4.789   3.799   1.464
 5253TP3      O26785   4.153   3.593   1.632
 5253TP3     H126786   4.169   3.552   1.720
 5253TP3     H226787   4.069   3.551   1.608
 5254TP3      O26788   5.100   3.629   1.143
 5254TP3     H126789   5.137   3.546   1.107
 5254TP3     H226790   5.096   3.609   1.239
 5255TP3      O26791   5.060   3.619   1.422
 5255TP3     H126792   4.964   3.628   1.437
 5255TP3     H226793   5.082   3.545   1.480
 5256TP3      O26794   5.354   2.539   2.619
 5256TP3     H126795   5.298   2.560   2.544
 5256TP3     H226796   5.374   2.444   2.604
 5257TP3      O26797   4.081   3.187   2.442
 5257TP3     H126798   4.100   3.133   2.522
 5257TP3     H226799   4.007   3.133   2.404
 5258TP3      O26800   4.347   2.016   2.021
 5258TP3     H126801   4.257   1.999   1.987
 5258TP3     H226802   4.330   2.094   2.076
 5259TP3      O26803   4.813   1.974   2.357
 5259TP3     H126804   4.849   1.934   2.439
 5259TP3     H226805   4.716   1.970   2.372
 5260TP3      O26806   5.143   2.371   2.443
 5260TP3     H126807   5.089   2.347   2.521
 5260TP3     H226808   5.121   2.464   2.426
 5261TP3      O26809   5.209   2.850   1.052
 5261TP3     H126810   5.205   2.827   0.957
 5261TP3     H226811   5.295   2.895   1.054
 5262TP3      O26812   4.776   2.240   1.093
 5262TP3     H126813   4.739   2.232   1.182
 5262TP3     H226814   4.745   2.154   1.058
 5263TP3      O26815   4.357   2.513   2.156
 5263TP3     H126816   4.283   2.514   2.218
 5263TP3     H226817   4.350   2.602   2.114
 5264TP3      O26818   4.354   2.519   1.638
 5264TP3     H126819   4.259   2.497   1.627
 5264TP3     H226820   4.388   2.493   1.550
 5265TP3      O26821   4.906   2.580   1.522
 5265TP3     H126822   4.866   2.656   1.475
 5265TP3     H226823   4.972   2.552   1.457
 5266TP3      O26824   4.808   2.589   2.652
 5266TP3     H126825   4.757   2.512   2.686
 5266TP3     H226826   4.888   2.589   2.706
 5267TP3      O26827   5.005   2.523   1.802
 5267TP3     H126828   4.981   2.578   1.726
 5267TP3     H226829   5.017   2.438   1.757
 5268TP3      O26830   4.112   2.529   2.312
 5268TP3     H126831   4.133   2.569   2.398
 5268TP3     H226832   4.071   2.446   2.341
 5269TP3      O26833   4.451   2.273   1.001
 5269TP3     H126834   4.404   2.236   1.078
 5269TP3     H226835   4.382   2.322   0.954
 5270TP3      O26836   3.786   2.240   1.721
 5270TP3     H126837   3.855   2.236   1.791
 5270TP3     H226838   3.831   2.208   1.641
 5271TP3      O26839   3.908   2.313   1.250
 5271TP3     H126840   3.965   2.369   1.193
 5271TP3     H226841   3.842   2.380   1.280
 5272TP3      O26842   4.918   2.678   2.247
 5272TP3     H126843   4.967   2.609   2.197
 5272TP3     H226844   4.879   2.625   2.318
 5273TP3      O26845   4.610   2.283   1.738
 5273TP3     H126846   4.516   2.277   1.765
 5273TP3     H226847   4.656   2.260   1.820
 5274TP3      O26848   4.087   2.433   1.626
 5274TP3     H126849   4.001   2.451   1.582
 5274TP3     H226850   4.114   2.349   1.585
 5275TP3      O26851   4.450   2.442   1.389
 5275TP3     H126852   4.547   2.449   1.400
 5275TP3     H226853   4.427   2.507   1.319
 5276TP3      O26854   5.046   2.196   2.062
 5276TP3     H126855   4.977   2.206   2.131
 5276TP3     H226856   4.992   2.174   1.985
 5277TP3      O26857   4.324   2.548   1.148
 5277TP3     H126858   4.271   2.511   1.075
 5277TP3     H226859   4.404   2.576   1.100
 5278TP3      O26860   5.368   3.760   2.714
 5278TP3     H126861   5.392   3.793   2.625
 5278TP3     H226862   5.441   3.795   2.765
 5279TP3      O26863   4.135   3.016   2.652
 5279TP3     H126864   4.206   3.031   2.715
 5279TP3     H226865   4.055   3.015   2.708
 5280TP3      O26866   4.736   2.555   1.925
 5280TP3     H126867   4.799   2.501   1.876
 5280TP3     H226868   4.717   2.497   2.001
 5281TP3      O26869   4.235   2.169   1.570
 5281TP3     H126870   4.202   2.077   1.577
 5281TP3     H226871   4.315   2.156   1.518
 5282TP3      O26872   4.601   2.387   2.166
 5282TP3     H126873   4.517   2.435   2.177
 5282TP3     H226874   4.656   2.419   2.240
 5283TP3      O26875   4.658   3.006   1.334
 5283TP3     H126876   4.577   2.960   1.301
 5283TP3     H226877   4.633   3.026   1.425
 5284TP3      O26878   5.378   2.936   2.219
 5284TP3     H126879   5.430   2.966   2.144
 5284TP3     H226880   5.291   2.925   2.176
 5285TP3      O26881   5.040   2.285   1.159
 5285TP3     H126882   4.945   2.301   1.142
 5285TP3     H226883   5.072   2.372   1.191
 5286TP3      O26884   4.801   3.039   2.460
 5286TP3     H126885   4.776   2.994   2.543
 5286TP3     H226886   4.775   3.130   2.480
 5287TP3      O26887   5.111   2.485   1.310
 5287TP3     H126888   5.193   2.470   1.361
 5287TP3     H226889   5.127   2.571   1.265
 5288TP3      O26890   4.174   2.953   1.925
 5288TP3     H126891   4.224   2.940   1.842
 5288TP3     H226892   4.171   2.865   1.965
 5289TP3      O26893   4.862   3.152   1.240
 5289TP3     H126894   4.829   3.237   1.276
 5289TP3     H226895   4.790   3.091   1.266
 5290TP3      O26896   3.863   2.774   2.447
 5290TP3     H126897   3.868   2.732   2.535
 5290TP3     H226898   3.796   2.723   2.400
 5291TP3      O26899   4.568   2.745   2.660
 5291TP3     H126900   4.535   2.706   2.578
 5291TP3     H226901   4.661   2.714   2.660
 5292TP3      O26902   5.036   3.275   2.465
 5292TP3     H126903   4.945   3.296   2.441
 5292TP3     H226904   5.037   3.308   2.558
 5293TP3      O26905   5.433   3.367   1.324
 5293TP3     H126906   5.393   3.291   1.367
 5293TP3     H226907   5.461   3.336   1.238
 5294TP3      O26908   5.153   2.859   2.050
 5294TP3     H126909   5.060   2.834   2.032
 5294TP3     H226910   5.199   2.789   1.999
 5295TP3      O26911   4.410   3.294   1.658
 5295TP3     H126912   4.457   3.376   1.638
 5295TP3     H226913   4.321   3.315   1.624
 5296TP3      O26914   3.986   2.776   1.114
 5296TP3     H126915   4.040   2.844   1.158
 5296TP3     H226916   3.894   2.803   1.135
 5297TP3      O26917   4.551   3.058   1.620
 5297TP3     H126918   4.513   3.149   1.614
 5297TP3     H226919   4.471   3.008   1.646
 5298TP3      O26920   4.593   3.480   2.254
 5298TP3     H126921   4.643   3.557   2.224
 5298TP3     H226922   4.658   3.439   2.314
 5299TP3      O26923   4.415   3.558   1.554
 5299TP3     H126924   4.320   3.571   1.575
 5299TP3     H226925   4.453   3.640   1.589
 5300TP3      O26926   4.930   3.069   2.206
 5300TP3     H126927   4.913   3.064   2.302
 5300TP3     H226928   5.005   3.007   2.196
 5301TP3      O26929   5.173   3.194   1.125
 5301TP3     H126930   5.202   3.142   1.203
 5301TP3     H226931   5.079   3.167   1.121
 5302TP3      O26932   5.229   3.529   2.453
 5302TP3     H126933   5.153   3.487   2.409
 5302TP3     H226934   5.247   3.603   2.393
 5303TP3      O26935   4.032   2.260   2.399
 5303TP3     H126936   3.942   2.297   2.403
 5303TP3     H226937   4.019   2.175   2.446
 5304TP3      O26938   5.257   3.046   1.348
 5304TP3     H126939   5.228   2.965   1.395
 5304TP3     H226940   5.352   3.046   1.366
 5305TP3      O26941   3.996   3.441   2.240
 5305TP3     H126942   4.029   3.350   2.240
 5305TP3     H226943   4.019   3.468   2.329
 5306TP3      O26944   4.597   3.295   0.973
 5306TP3     H126945   4.601   3.221   0.910
 5306TP3     H226946   4.542   3.252   1.041
 5307TP3      O26947   4.463   3.246   1.219
 5307TP3     H126948   4.503   3.194   1.290
 5307TP3     H226949   4.477   3.338   1.251
 5308TP3      O26950   4.123   2.970   1.270
 5308TP3     H126951   4.048   3.013   1.316
 5308TP3     H226952   4.171   3.046   1.232
 5309TP3      O26953   4.906   2.237   2.304
 5309TP3     H126954   4.980   2.246   2.365
 5309TP3     H226955   4.869   2.150   2.326
 5310TP3      O26956   4.982   2.191   1.410
 5310TP3     H126957   5.002   2.234   1.324
 5310TP3     H226958   5.043   2.238   1.468
 5311TP3      O26959   4.749   3.412   1.287
 5311TP3     H126960   4.666   3.463   1.293
 5311TP3     H226961   4.804   3.470   1.232
 5312TP3      O26962   4.706   2.367   1.488
 5312TP3     H126963   4.779   2.432   1.494
 5312TP3     H226964   4.676   2.357   1.580
 5313TP3      O26965   4.756   2.470   2.407
 5313TP3     H126966   4.764   2.526   2.487
 5313TP3     H226967   4.827   2.405   2.414
 5314TP3      O26968   4.781   2.072   1.569
 5314TP3     H126969   4.751   2.135   1.635
 5314TP3     H226970   4.855   2.125   1.529
 5315TP3      O26971   4.494   3.511   1.288
 5315TP3     H126972   4.498   3.592   1.231
 5315TP3     H226973   4.462   3.549   1.373
 5316TP3      O26974   4.353   2.189   1.244
 5316TP3     H126975   4.348   2.276   1.287
 5316TP3     H226976   4.443   2.161   1.271
 5317TP3      O26977   5.383   2.251   2.485
 5317TP3     H126978   5.290   2.285   2.478
 5317TP3     H226979   5.412   2.265   2.395
 5318TP3      O26980   5.231   2.644   1.891
 5318TP3     H126981   5.154   2.596   1.858
 5318TP3     H226982   5.275   2.572   1.942
 5319TP3      O26983   4.175   3.230   1.145
 5319TP3     H126984   4.246   3.285   1.183
 5319TP3     H226985   4.227   3.179   1.079
 5320TP3      O26986   4.009   2.499   1.063
 5320TP3     H126987   4.016   2.593   1.088
 5320TP3     H226988   3.919   2.489   1.030
 5321TP3      O26989   5.351   3.565   2.057
 5321TP3     H126990   5.334   3.631   1.987
 5321TP3     H226991   5.445   3.576   2.073
 5322TP3      O26992   4.093   1.975   1.944
 5322TP3     H126993   4.077   1.976   1.847
 5322TP3     H226994   4.055   1.888   1.967
 5323TP3      O26995   3.990   3.370   1.555
 5323TP3     H126996   3.901   3.407   1.549
 5323TP3     H226997   4.030   3.411   1.478
 5324TP3      O26998   3.901   3.635   2.687
 5324TP3     H126999   3.970   3.617   2.753
 5324TP3     H227000   3.869   3.546   2.663
 5325TP3      O27001   4.378   3.522   2.848
 5325TP3     H127002   4.455   3.464   2.866
 5325TP3     H227003   4.368   3.503   2.752
 5326TP3      O27004   4.799   3.482   0.984
 5326TP3     H127005   4.725   3.419   0.999
 5326TP3     H227006   4.866   3.417   0.959
 5327TP3      O27007   5.021   3.367   2.719
 5327TP3     H127008   4.988   3.280   2.752
 5327TP3     H227009   5.100   3.380   2.775
 5328TP3      O27010   5.249   3.445   0.998
 5328TP3     H127011   5.272   3.371   1.056
 5328TP3     H227012   5.332   3.467   0.951
 5329TP3      O27013   3.892   3.008   2.776
 5329TP3     H127014   3.912   2.917   2.746
 5329TP3     H227015   3.824   3.031   2.710
 5330TP3      O27016   4.321   3.044   0.985
 5330TP3     H127017   4.345   2.969   1.042
 5330TP3     H227018   4.405   3.044   0.934
 5331TP3      O27019   4.590   3.016   2.700
 5331TP3     H127020   4.534   3.044   2.627
 5331TP3     H227021   4.571   2.920   2.715
 5332TP3      O27022   4.887   3.158   0.961
 5332TP3     H127023   4.853   3.160   1.052
 5332TP3     H227024   4.865   3.064   0.937
 5333TP3      O27025   5.140   2.997   2.459
 5333TP3     H127026   5.221   3.052   2.457
 5333TP3     H227027   5.073   3.068   2.460
 5334TP3      O27028   3.981   2.730   2.716
 5334TP3     H127029   4.043   2.657   2.709
 5334TP3     H227030   3.968   2.735   2.812
 5335TP3      O27031   4.456   2.848   1.231
 5335TP3     H127032   4.401   2.791   1.288
 5335TP3     H227033   4.489   2.786   1.162
 5336TP3      O27034   4.377   2.625   2.454
 5336TP3     H127035   4.319   2.700   2.477
 5336TP3     H227036   4.423   2.663   2.377
 5337TP3      O27037   4.563   2.668   1.051
 5337TP3     H127038   4.543   2.667   0.953
 5337TP3     H227039   4.660   2.674   1.051
 5338TP3      O27040   4.889   2.880   2.791
 5338TP3     H127041   4.985   2.884   2.789
 5338TP3     H227042   4.869   2.813   2.857
 5339TP3      O27043   5.488   2.888   0.996
 5339TP3     H127044   5.465   2.861   0.905
 5339TP3     H227045   5.500   2.985   0.988
 5340TP3      O27046   4.433   2.369   2.559
 5340TP3     H127047   4.435   2.298   2.491
 5340TP3     H227048   4.416   2.448   2.505
 5341TP3      O27049   4.465   2.203   2.315
 5341TP3     H127050   4.514   2.250   2.243
 5341TP3     H227051   4.374   2.198   2.278
 5342TP3      O27052   4.609   2.754   2.335
 5342TP3     H127053   4.693   2.740   2.291
 5342TP3     H227054   4.578   2.841   2.306
 5343TP3      O27055   5.053   2.520   2.834
 5343TP3     H127056   5.088   2.433   2.814
 5343TP3     H227057   5.132   2.577   2.831
 5344TP3      O27058   5.185   2.812   2.647
 5344TP3     H127059   5.165   2.887   2.586
 5344TP3     H227060   5.280   2.801   2.629
 5345TP3      O27061   4.266   2.495   2.753
 5345TP3     H127062   4.193   2.432   2.737
 5345TP3     H227063   4.332   2.464   2.688
 5346TP3      O27064   4.541   1.947   2.349
 5346TP3     H127065   4.519   2.042   2.342
 5346TP3     H227066   4.468   1.907   2.298
 5347TP3      O27067   4.672   2.368   2.717
 5347TP3     H127068   4.630   2.361   2.804
 5347TP3     H227069   4.592   2.361   2.659
 5348TP3      O27070   4.943   2.294   2.628
 5348TP3     H127071   4.846   2.306   2.637
 5348TP3     H227072   4.961   2.227   2.694
 5349TP3      O27073   5.116   2.154   2.831
 5349TP3     H127074   5.092   2.061   2.806
 5349TP3     H227075   5.060   2.175   2.904
 5350TP3      O27076   4.087   2.284   2.731
 5350TP3     H127077   4.098   2.211   2.667
 5350TP3     H227078   4.056   2.237   2.808
 5351TP3      O27079   4.567   1.892   2.619
 5351TP3     H127080   4.629   1.817   2.622
 5351TP3     H227081   4.549   1.897   2.524
 5352TP3      O27082   4.603   2.047   2.829
 5352TP3     H127083   4.581   1.993   2.750
 5352TP3     H227084   4.537   2.120   2.825
 5353TP3      O27085   4.544   3.742   1.157
 5353TP3     H127086   4.641   3.745   1.162
 5353TP3     H227087   4.532   3.796   1.078
 5354TP3      O27088   3.898   3.195   1.102
 5354TP3     H127089   3.994   3.204   1.117
 5354TP3     H227090   3.899   3.133   1.025
 5355TP3      O27091   3.779   3.732   1.596
 5355TP3     H127092   3.706   3.680   1.554
 5355TP3     H227093   3.808   3.670   1.666
 5356TP3      O27094   3.863   3.549   1.787
 5356TP3     H127095   3.825   3.463   1.811
 5356TP3     H227096   3.891   3.582   1.875
 5357TP3      O27097   5.418   3.152   2.860
 5357TP3     H127098   5.323   3.159   2.878
 5357TP3     H227099   5.449   3.244   2.871
 5358TP3      O27100   5.413   3.348   2.298
 5358TP3     H127101   5.351   3.403   2.348
 5358TP3     H227102   5.364   3.321   2.218
 5359TP3      O27103   5.460   2.510   1.057
 5359TP3     H127104   5.454   2.570   0.983
 5359TP3     H227105   5.427   2.426   1.019
 5360TP3      O27106   5.354   2.652   1.628
 5360TP3     H127107   5.356   2.555   1.629
 5360TP3     H227108   5.337   2.672   1.722
 5361TP3      O27109   3.864   2.849   2.041
 5361TP3     H127110   3.875   2.850   1.944
 5361TP3     H227111   3.956   2.838   2.071
 5362TP3      O27112   5.455   2.851   2.623
 5362TP3     H127113   5.506   2.771   2.609
 5362TP3     H227114   5.500   2.917   2.568
 5363TP3      O27115   5.378   2.267   0.972
 5363TP3     H127116   5.428   2.210   1.030
 5363TP3     H227117   5.292   2.222   0.976
 5364TP3      O27118   5.328   2.407   1.465
 5364TP3     H127119   5.353   2.317   1.497
 5364TP3     H227120   5.410   2.444   1.434
 5365TP3      O27121   5.353   2.443   2.024
 5365TP3     H127122   5.447   2.461   2.004
 5365TP3     H227123   5.363   2.470   2.117
 5366TP3      O27124   5.399   2.536   2.283
 5366TP3     H127125   5.315   2.565   2.324
 5366TP3     H227126   5.447   2.619   2.271
 5367TP3      O27127   3.842   2.386   2.637
 5367TP3     H127128   3.927   2.358   2.676
 5367TP3     H227129   3.780   2.315   2.667
 5368TP3      O27130   5.350   2.136   1.494
 5368TP3     H127131   5.405   2.094   1.563
 5368TP3     H227132   5.318   2.056   1.445
 5369TP3      O27133   3.953   2.218   1.936
 5369TP3     H127134   3.996   2.133   1.960
 5369TP3     H227135   4.014   2.284   1.971
 5370TP3      O27136   3.778   2.518   2.039
 5370TP3     H127137   3.834   2.492   1.964
 5370TP3     H227138   3.824   2.599   2.065
 5371TP3      O27139   3.816   2.149   1.448
 5371TP3     H127140   3.722   2.157   1.428
 5371TP3     H227141   3.855   2.194   1.372
 5372TP3      O27142   5.284   3.642   1.646
 5372TP3     H127143   5.347   3.609   1.578
 5372TP3     H227144   5.342   3.683   1.712
 5373TP3      O27145   3.808   2.009   2.276
 5373TP3     H127146   3.742   1.991   2.347
 5373TP3     H227147   3.760   2.074   2.221
 5374TP3      O27148   4.035   3.327   2.696
 5374TP3     H127149   3.956   3.347   2.643
 5374TP3     H227150   3.998   3.318   2.782
 5375TP3      O27151   4.324   3.437   2.325
 5375TP3     H127152   4.299   3.525   2.294
 5375TP3     H227153   4.417   3.437   2.292
 5376TP3      O27154   4.757   3.575   2.614
 5376TP3     H127155   4.776   3.529   2.697
 5376TP3     H227156   4.847   3.604   2.585
 5377TP3      O27157   4.984   3.701   2.543
 5377TP3     H127158   5.056   3.641   2.519
 5377TP3     H227159   5.021   3.746   2.623
 5378TP3      O27160   5.464   1.945   2.476
 5378TP3     H127161   5.386   1.980   2.430
 5378TP3     H227162   5.495   1.874   2.418
 5379TP3      O27163   4.065   3.753   2.314
 5379TP3     H127164   3.991   3.805   2.280
 5379TP3     H227165   4.040   3.736   2.406
 5380TP3      O27166   4.312   3.709   2.223
 5380TP3     H127167   4.222   3.726   2.261
 5380TP3     H227168   4.309   3.771   2.148
 5381TP3      O27169   4.783   3.699   2.139
 5381TP3     H127170   4.737   3.757   2.076
 5381TP3     H227171   4.796   3.761   2.215
 5382TP3      O27172   5.008   3.572   2.253
 5382TP3     H127173   4.929   3.607   2.207
 5382TP3     H227174   5.064   3.652   2.245
 5383TP3      O27175   5.251   3.735   2.263
 5383TP3     H127176   5.263   3.831   2.243
 5383TP3     H227177   5.294   3.696   2.185
 5384TP3      O27178   4.018   3.618   2.010
 5384TP3     H127179   4.002   3.568   2.092
 5384TP3     H227180   4.098   3.575   1.973
 5385TP3      O27181   4.221   3.488   1.879
 5385TP3     H127182   4.208   3.394   1.904
 5385TP3     H227183   4.308   3.506   1.920
 5386TP3      O27184   4.481   3.536   1.965
 5386TP3     H127185   4.496   3.443   1.941
 5386TP3     H227186   4.486   3.531   2.062
 5387TP3      O27187   4.825   2.101   1.877
 5387TP3     H127188   4.758   2.038   1.909
 5387TP3     H227189   4.880   2.044   1.822
 5388TP3      O27190   5.332   1.902   1.899
 5388TP3     H127191   5.392   1.961   1.846
 5388TP3     H227192   5.246   1.936   1.867
 5389TP3      O27193  -0.022   2.032   1.753
 5389TP3     H127194   0.028   1.975   1.691
 5389TP3     H227195   0.017   2.120   1.741
 5390TP3      O27196   4.066   1.962   1.665
 5390TP3     H127197   3.985   1.949   1.612
 5390TP3     H227198   4.106   1.873   1.656
 5391TP3      O27199   3.937   1.937   1.230
 5391TP3     H127200   3.991   2.003   1.182
 5391TP3     H227201   3.886   1.994   1.289
 5392TP3      O27202   4.502   1.954   1.644
 5392TP3     H127203   4.592   1.989   1.629
 5392TP3     H227204   4.506   1.933   1.737
 5393TP3      O27205   5.080   1.956   1.803
 5393TP3     H127206   5.076   1.970   1.707
 5393TP3     H227207   5.042   1.866   1.814
 5394TP3      O27208   5.202   1.954   1.366
 5394TP3     H127209   5.126   2.013   1.358
 5394TP3     H227210   5.162   1.870   1.400
 5395TP3      O27211   3.927   3.533   1.346
 5395TP3     H127212   3.858   3.529   1.277
 5395TP3     H227213   3.930   3.629   1.356
 5396TP3      O27214   4.116   2.131   1.092
 5396TP3     H127215   4.170   2.073   1.035
 5396TP3     H227216   4.185   2.166   1.151
 5397TP3      O27217   4.622   2.155   1.326
 5397TP3     H127218   4.650   2.100   1.401
 5397TP3     H227219   4.637   2.243   1.366
 5398TP3      O27220   4.817   3.673   1.171
 5398TP3     H127221   4.912   3.681   1.154
 5398TP3     H227222   4.795   3.611   1.098
 5399TP3      O27223   5.435   3.608   1.430
 5399TP3     H127224   5.452   3.524   1.383
 5399TP3     H227225   5.471   3.675   1.366
 5400TP3      O27226   4.046   2.020   2.613
 5400TP3     H127227   4.003   1.937   2.643
 5400TP3     H227228   4.136   2.008   2.651
 5401TP3      O27229   4.252   1.956   2.775
 5401TP3     H127230   4.337   1.918   2.749
 5401TP3     H227231   4.208   1.880   2.819
 5402TP3      O27232   4.106   3.634   1.034
 5402TP3     H127233   4.080   3.659   1.124
 5402TP3     H227234   4.184   3.577   1.050
 5403TP3      O27235   5.095   1.891   2.793
 5403TP3     H127236   5.101   1.834   2.869
 5403TP3     H227237   5.182   1.877   2.751
 5404TP3      O27238   5.407   3.487   2.664
 5404TP3     H127239   5.337   3.472   2.596
 5404TP3     H227240   5.402   3.585   2.670
 5405TP3      O27241   1.203   4.764   1.642
 5405TP3     H127242   1.195   4.862   1.650
 5405TP3     H227243   1.126   4.742   1.588
 5406TP3      O27244   1.088   4.683   1.996
 5406TP3     H127245   1.087   4.624   2.072
 5406TP3     H227246   1.043   4.631   1.926
 5407TP3      O27247   0.316   4.656   2.157
 5407TP3     H127248   0.325   4.581   2.219
 5407TP3     H227249   0.395   4.709   2.177
 5408TP3      O27250   1.444   4.984   1.830
 5408TP3     H127251   1.412   4.910   1.882
 5408TP3     H227252   1.456   5.053   1.898
 5409TP3      O27253   0.407   5.100   1.995
 5409TP3     H127254   0.381   5.010   1.968
 5409TP3     H227255   0.502   5.085   2.001
 5410TP3      O27256   0.088   4.467   1.528
 5410TP3     H127257   0.031   4.540   1.557
 5410TP3     H227258   0.025   4.397   1.516
 5411TP3      O27259   0.150   4.676   1.772
 5411TP3     H127260   0.183   4.593   1.811
 5411TP3     H227261   0.217   4.696   1.706
 5412TP3      O27262   1.136   5.455   1.864
 5412TP3     H127263   1.214   5.404   1.833
 5412TP3     H227264   1.147   5.451   1.960
 5413TP3      O27265   0.923   4.928   2.055
 5413TP3     H127266   0.953   4.869   1.984
 5413TP3     H227267   1.008   4.944   2.099
 5414TP3      O27268   1.777   4.095   2.114
 5414TP3     H127269   1.798   4.151   2.193
 5414TP3     H227270   1.840   4.133   2.051
 5415TP3      O27271   1.239   4.374   2.082
 5415TP3     H127272   1.259   4.279   2.085
 5415TP3     H227273   1.230   4.386   1.986
 5416TP3      O27274   0.549   4.184   1.795
 5416TP3     H127275   0.560   4.267   1.744
 5416TP3     H227276   0.508   4.126   1.728
 5417TP3      O27277   1.322   4.189   1.637
 5417TP3     H127278   1.385   4.158   1.707
 5417TP3     H227279   1.379   4.251   1.590
 5418TP3      O27280   0.231   4.433   1.860
 5418TP3     H127281   0.279   4.370   1.917
 5418TP3     H227282   0.233   4.383   1.776
 5419TP3      O27283   0.723   4.579   1.814
 5419TP3     H127284   0.795   4.521   1.843
 5419TP3     H227285   0.677   4.518   1.753
 5420TP3      O27286   1.820   4.230   2.348
 5420TP3     H127287   1.770   4.313   2.331
 5420TP3     H227288   1.827   4.232   2.444
 5421TP3      O27289   0.491   4.094   2.217
 5421TP3     H127290   0.442   4.123   2.137
 5421TP3     H227291   0.408   4.090   2.269
 5422TP3      O27292   1.171   5.024   1.557
 5422TP3     H127293   1.149   4.999   1.466
 5422TP3     H227294   1.138   5.116   1.563
 5423TP3      O27295   0.689   4.840   2.221
 5423TP3     H127296   0.620   4.903   2.251
 5423TP3     H227297   0.760   4.901   2.195
 5424TP3      O27298   1.509   4.129   1.836
 5424TP3     H127299   1.484   4.053   1.888
 5424TP3     H227300   1.574   4.171   1.895
 5425TP3      O27301   0.401   4.263   2.003
 5425TP3     H127302   0.465   4.327   2.040
 5425TP3     H227303   0.452   4.219   1.931
 5426TP3      O27304   0.540   5.042   2.302
 5426TP3     H127305   0.534   5.135   2.275
 5426TP3     H227306   0.452   5.031   2.344
 5427TP3      O27307   0.145   5.003   1.383
 5427TP3     H127308   0.117   5.044   1.299
 5427TP3     H227309   0.154   5.080   1.442
 5428TP3      O27310   1.506   5.165   2.068
 5428TP3     H127311   1.409   5.179   2.078
 5428TP3     H227312   1.533   5.257   2.048
 5429TP3      O27313   1.536   3.994   2.197
 5429TP3     H127314   1.466   4.059   2.185
 5429TP3     H227315   1.613   4.037   2.153
 5430TP3      O27316   0.828   3.809   1.946
 5430TP3     H127317   0.811   3.713   1.938
 5430TP3     H227318   0.742   3.840   1.981
 5431TP3      O27319   1.331   5.346   1.717
 5431TP3     H127320   1.370   5.266   1.674
 5431TP3     H227321   1.390   5.416   1.686
 5432TP3      O27322   1.459   5.136   1.578
 5432TP3     H127323   1.422   5.072   1.515
 5432TP3     H227324   1.459   5.083   1.660
 5433TP3      O27325   1.607   5.002   2.423
 5433TP3     H127326   1.632   4.934   2.357
 5433TP3     H227327   1.638   5.083   2.379
 5434TP3      O27328   1.064   4.683   1.396
 5434TP3     H127329   0.998   4.746   1.360
 5434TP3     H227330   1.138   4.696   1.335
 5435TP3      O27331   1.075   4.550   1.097
 5435TP3     H127332   1.145   4.554   1.164
 5435TP3     H227333   1.104   4.471   1.048
 5436TP3      O27334   1.800   4.630   2.220
 5436TP3     H127335   1.741   4.708   2.227
 5436TP3     H227336   1.857   4.658   2.147
 5437TP3      O27337   1.415   4.701   1.492
 5437TP3     H127338   1.340   4.730   1.551
 5437TP3     H227339   1.465   4.641   1.550
 5438TP3      O27340   1.404   4.523   2.407
 5438TP3     H127341   1.405   4.605   2.460
 5438TP3     H227342   1.343   4.552   2.336
 5439TP3      O27343   0.578   4.774   1.686
 5439TP3     H127344   0.541   4.739   1.601
 5439TP3     H227345   0.636   4.702   1.718
 5440TP3      O27346   0.705   5.107   1.956
 5440TP3     H127347   0.707   5.066   1.868
 5440TP3     H227348   0.783   5.067   1.998
 5441TP3      O27349   0.602   4.653   2.052
 5441TP3     H127350   0.654   4.655   1.970
 5441TP3     H227351   0.647   4.718   2.110
 5442TP3      O27352   1.245   5.207   2.123
 5442TP3     H127353   1.215   5.279   2.180
 5442TP3     H227354   1.219   5.124   2.169
 5443TP3      O27355   0.697   5.093   2.525
 5443TP3     H127356   0.648   5.161   2.575
 5443TP3     H227357   0.635   5.072   2.452
 5444TP3      O27358   1.301   4.633   1.255
 5444TP3     H127359   1.355   4.648   1.337
 5444TP3     H227360   1.351   4.680   1.184
 5445TP3      O27361   0.395   4.712   2.441
 5445TP3     H127362   0.397   4.782   2.509
 5445TP3     H227363   0.301   4.713   2.414
 5446TP3      O27364   1.071   5.299   1.605
 5446TP3     H127365   1.112   5.333   1.686
 5446TP3     H227366   1.011   5.369   1.578
 5447TP3      O27367   0.519   5.293   2.585
 5447TP3     H127368   0.509   5.277   2.489
 5447TP3     H227369   0.431   5.268   2.619
 5448TP3      O27370   1.674   3.800   1.257
 5448TP3     H127371   1.578   3.808   1.273
 5448TP3     H227372   1.693   3.883   1.208
 5449TP3      O27373   0.466   4.674   1.449
 5449TP3     H127374   0.438   4.752   1.396
 5449TP3     H227375   0.405   4.607   1.420
 5450TP3      O27376   1.784   5.230   1.082
 5450TP3     H127377   1.802   5.323   1.107
 5450TP3     H227378   1.873   5.191   1.095
 5451TP3      O27379   0.100   4.923   2.327
 5451TP3     H127380   0.054   4.916   2.243
 5451TP3     H227381   0.085   4.832   2.359
 5452TP3      O27382   0.062   5.204   2.003
 5452TP3     H127383   0.154   5.177   2.013
 5452TP3     H227384   0.051   5.266   2.075
 5453TP3      O27385   1.844   5.238   2.684
 5453TP3     H127386   1.878   5.194   2.603
 5453TP3     H227387   1.770   5.288   2.646
 5454TP3      O27388   0.961   5.217   2.452
 5454TP3     H127389   0.981   5.289   2.516
 5454TP3     H227390   0.883   5.173   2.491
 5455TP3      O27391   0.393   5.436   1.619
 5455TP3     H127392   0.406   5.411   1.713
 5455TP3     H227393   0.301   5.407   1.609
 5456TP3      O27394   1.315   5.499   1.151
 5456TP3     H127395   1.379   5.434   1.115
 5456TP3     H227396   1.316   5.479   1.246
 5457TP3      O27397   1.265   5.465   1.416
 5457TP3     H127398   1.183   5.502   1.450
 5457TP3     H227399   1.296   5.409   1.489
 5458TP3      O27400   1.595   4.405   2.619
 5458TP3     H127401   1.539   4.451   2.555
 5458TP3     H227402   1.588   4.312   2.592
 5459TP3      O27403   0.306   5.063   2.438
 5459TP3     H127404   0.319   5.017   2.524
 5459TP3     H227405   0.225   5.018   2.405
 5460TP3      O27406   0.578   3.901   2.029
 5460TP3     H127407   0.489   3.884   1.990
 5460TP3     H227408   0.559   3.983   2.078
 5461TP3      O27409   1.042   3.859   2.359
 5461TP3     H127410   1.079   3.820   2.441
 5461TP3     H227411   0.945   3.856   2.375
 5462TP3      O27412   1.361   4.252   2.438
 5462TP3     H127413   1.312   4.228   2.520
 5462TP3     H227414   1.352   4.349   2.432
 5463TP3      O27415   1.446   4.737   1.054
 5463TP3     H127416   1.435   4.720   0.958
 5463TP3     H227417   1.532   4.782   1.052
 5464TP3      O27418   1.001   4.129   1.090
 5464TP3     H127419   0.969   4.118   1.181
 5464TP3     H227420   0.973   4.041   1.057
 5465TP3      O27421   0.586   4.402   2.156
 5465TP3     H127422   0.509   4.395   2.215
 5465TP3     H227423   0.570   4.489   2.114
 5466TP3      O27424   0.580   4.403   1.637
 5466TP3     H127425   0.485   4.383   1.625
 5466TP3     H227426   0.615   4.378   1.549
 5467TP3      O27427   1.135   4.459   1.515
 5467TP3     H127428   1.096   4.540   1.476
 5467TP3     H227429   1.201   4.437   1.448
 5468TP3      O27430   1.040   4.480   2.654
 5468TP3     H127431   0.989   4.402   2.685
 5468TP3     H227432   1.123   4.474   2.706
 5469TP3      O27433   1.239   4.410   1.802
 5469TP3     H127434   1.207   4.467   1.729
 5469TP3     H227435   1.244   4.325   1.755
 5470TP3      O27436   0.341   4.419   2.314
 5470TP3     H127437   0.357   4.450   2.404
 5470TP3     H227438   0.308   4.329   2.332
 5471TP3      O27439   0.680   4.158   1.002
 5471TP3     H127440   0.633   4.119   1.078
 5471TP3     H227441   0.610   4.206   0.955
 5472TP3      O27442   0.027   4.178   1.687
 5472TP3     H127443   0.075   4.160   1.773
 5472TP3     H227444   0.068   4.111   1.630
 5473TP3      O27445   0.138   4.212   1.253
 5473TP3     H127446   0.196   4.260   1.190
 5473TP3     H227447   0.070   4.279   1.266
 5474TP3      O27448   1.156   4.563   2.250
 5474TP3     H127449   1.196   4.493   2.193
 5474TP3     H227450   1.104   4.512   2.315
 5475TP3      O27451   0.840   4.168   1.738
 5475TP3     H127452   0.745   4.165   1.763
 5475TP3     H227453   0.884   4.139   1.819
 5476TP3      O27454   0.316   4.315   1.626
 5476TP3     H127455   0.230   4.339   1.587
 5476TP3     H227456   0.334   4.229   1.584
 5477TP3      O27457   0.679   4.327   1.390
 5477TP3     H127458   0.776   4.335   1.400
 5477TP3     H227459   0.655   4.393   1.323
 5478TP3      O27460   1.278   4.090   2.058
 5478TP3     H127461   1.212   4.090   2.131
 5478TP3     H227462   1.227   4.057   1.983
 5479TP3      O27463   0.553   4.442   1.144
 5479TP3     H127464   0.500   4.402   1.072
 5479TP3     H227465   0.634   4.465   1.096
 5480TP3      O27466   0.383   4.901   2.645
 5480TP3     H127467   0.445   4.926   2.716
 5480TP3     H227468   0.300   4.903   2.699
 5481TP3      O27469   0.962   4.438   1.926
 5481TP3     H127470   1.025   4.387   1.874
 5481TP3     H227471   0.946   4.382   2.003
 5482TP3      O27472   0.466   4.055   1.569
 5482TP3     H127473   0.431   3.964   1.577
 5482TP3     H227474   0.546   4.041   1.516
 5483TP3      O27475   0.827   4.271   2.165
 5483TP3     H127476   0.744   4.322   2.174
 5483TP3     H227477   0.884   4.309   2.235
 5484TP3      O27478   0.887   4.889   1.341
 5484TP3     H127479   0.807   4.846   1.305
 5484TP3     H227480   0.858   4.912   1.432
 5485TP3      O27481   1.615   4.822   2.218
 5485TP3     H127482   1.665   4.875   2.152
 5485TP3     H227483   1.527   4.816   2.176
 5486TP3      O27484   1.267   4.172   1.157
 5486TP3     H127485   1.172   4.191   1.141
 5486TP3     H227486   1.302   4.256   1.193
 5487TP3      O27487   1.035   4.924   2.463
 5487TP3     H127488   1.006   4.878   2.542
 5487TP3     H227489   1.004   5.014   2.477
 5488TP3      O27490   1.340   4.372   1.311
 5488TP3     H127491   1.424   4.357   1.359
 5488TP3     H227492   1.357   4.456   1.264
 5489TP3      O27493   0.401   4.838   1.918
 5489TP3     H127494   0.459   4.827   1.841
 5489TP3     H227495   0.407   4.752   1.963
 5490TP3      O27496   1.093   5.040   1.246
 5490TP3     H127497   1.055   5.125   1.276
 5490TP3     H227498   1.019   4.978   1.266
 5491TP3      O27499   0.114   4.664   2.429
 5491TP3     H127500   0.131   4.633   2.519
 5491TP3     H227501   0.036   4.611   2.405
 5492TP3      O27502   0.795   4.631   2.656
 5492TP3     H127503   0.762   4.591   2.574
 5492TP3     H227504   0.887   4.598   2.657
 5493TP3      O27505   1.269   5.172   2.460
 5493TP3     H127506   1.177   5.182   2.430
 5493TP3     H227507   1.256   5.196   2.553
 5494TP3      O27508   1.833   4.378   1.296
 5494TP3     H127509   1.777   4.353   1.219
 5494TP3     H227510   1.840   4.474   1.276
 5495TP3      O27511   1.832   4.954   2.574
 5495TP3     H127512   1.746   4.992   2.545
 5495TP3     H227513   1.888   4.971   2.495
 5496TP3      O27514   1.644   5.255   1.327
 5496TP3     H127515   1.628   5.170   1.368
 5496TP3     H227516   1.685   5.234   1.242
 5497TP3      O27517   1.385   4.747   2.048
 5497TP3     H127518   1.291   4.727   2.033
 5497TP3     H227519   1.428   4.675   1.999
 5498TP3      O27520   0.634   5.183   1.666
 5498TP3     H127521   0.678   5.264   1.637
 5498TP3     H227522   0.548   5.193   1.621
 5499TP3      O27523   0.208   4.649   1.126
 5499TP3     H127524   0.268   4.722   1.154
 5499TP3     H227525   0.123   4.696   1.127
 5500TP3      O27526   0.777   4.946   1.608
 5500TP3     H127527   0.742   5.037   1.617
 5500TP3     H227528   0.707   4.895   1.652
 5501TP3      O27529   0.820   5.359   2.245
 5501TP3     H127530   0.860   5.446   2.229
 5501TP3     H227531   0.881   5.319   2.310
 5502TP3      O27532   0.649   5.422   1.539
 5502TP3     H127533   0.555   5.431   1.568
 5502TP3     H227534   0.685   5.503   1.583
 5503TP3      O27535   1.164   4.960   2.207
 5503TP3     H127536   1.140   4.945   2.302
 5503TP3     H227537   1.232   4.891   2.192
 5504TP3      O27538   1.414   5.073   1.120
 5504TP3     H127539   1.441   5.022   1.200
 5504TP3     H227540   1.319   5.054   1.122
 5505TP3      O27541   1.450   5.415   2.453
 5505TP3     H127542   1.377   5.371   2.408
 5505TP3     H227543   1.467   5.494   2.398
 5506TP3      O27544   1.871  -0.055   1.163
 5506TP3     H127545   1.926   0.014   1.124
 5506TP3     H227546   1.784  -0.008   1.169
 5507TP3      O27547   0.263   4.168   2.441
 5507TP3     H127548   0.183   4.188   2.390
 5507TP3     H227549   0.257   4.071   2.438
 5508TP3      O27550   1.485   4.930   1.345
 5508TP3     H127551   1.461   4.851   1.397
 5508TP3     H227552   1.580   4.935   1.361
 5509TP3      O27553   0.226   5.321   2.245
 5509TP3     H127554   0.254   5.228   2.245
 5509TP3     H227555   0.250   5.350   2.334
 5510TP3      O27556   0.827   5.177   0.964
 5510TP3     H127557   0.831   5.095   0.912
 5510TP3     H227558   0.775   5.145   1.043
 5511TP3      O27559   0.720   5.140   1.209
 5511TP3     H127560   0.716   5.084   1.287
 5511TP3     H227561   0.702   5.230   1.244
 5512TP3      O27562   0.351   4.854   1.265
 5512TP3     H127563   0.279   4.899   1.313
 5512TP3     H227564   0.400   4.931   1.229
 5513TP3      O27565   1.139   4.125   2.299
 5513TP3     H127566   1.212   4.134   2.362
 5513TP3     H227567   1.100   4.039   2.323
 5514TP3      O27568   1.207   4.078   1.408
 5514TP3     H127569   1.230   4.119   1.323
 5514TP3     H227570   1.263   4.127   1.470
 5515TP3      O27571   0.978   5.292   1.284
 5515TP3     H127572   0.891   5.338   1.286
 5515TP3     H227573   1.028   5.349   1.223
 5516TP3      O27574   0.936   4.251   1.488
 5516TP3     H127575   1.008   4.317   1.495
 5516TP3     H227576   0.904   4.240   1.580
 5517TP3      O27577   0.993   4.364   2.406
 5517TP3     H127578   1.000   4.414   2.489
 5517TP3     H227579   1.055   4.290   2.414
 5518TP3      O27580   1.014   3.957   1.569
 5518TP3     H127581   0.981   4.021   1.633
 5518TP3     H227582   1.086   4.012   1.528
 5519TP3      O27583   0.729   5.405   1.284
 5519TP3     H127584   0.718   5.486   1.232
 5519TP3     H227585   0.688   5.425   1.372
 5520TP3      O27586   0.584   4.072   1.244
 5520TP3     H127587   0.577   4.160   1.286
 5520TP3     H227588   0.674   4.046   1.271
 5521TP3      O27589   1.600   4.142   2.493
 5521TP3     H127590   1.510   4.179   2.477
 5521TP3     H227591   1.635   4.142   2.403
 5522TP3      O27592   1.468   4.524   1.888
 5522TP3     H127593   1.386   4.477   1.864
 5522TP3     H227594   1.519   4.457   1.939
 5523TP3      O27595   0.452   5.111   1.214
 5523TP3     H127596   0.486   5.195   1.182
 5523TP3     H227597   0.440   5.071   1.124
 5524TP3      O27598   0.238   4.380   1.060
 5524TP3     H127599   0.241   4.474   1.087
 5524TP3     H227600   0.148   4.370   1.028
 5525TP3      O27601   1.569   5.439   2.087
 5525TP3     H127602   1.555   5.489   2.003
 5525TP3     H227603   1.666   5.450   2.088
 5526TP3      O27604   0.336   3.850   1.937
 5526TP3     H127605   0.314   3.862   1.843
 5526TP3     H227606   0.279   3.774   1.961
 5527TP3      O27607   0.218   5.234   1.549
 5527TP3     H127608   0.133   5.281   1.552
 5527TP3     H227609   0.261   5.285   1.479
 5528TP3      O27610   0.123   5.500   2.704
 5528TP3     H127611   0.206   5.482   2.748
 5528TP3     H227612   0.100   5.418   2.658
 5529TP3      O27613   0.602   5.385   2.845
 5529TP3     H127614   0.690   5.354   2.869
 5529TP3     H227615   0.604   5.367   2.749
 5530TP3      O27616   1.027   5.358   0.993
 5530TP3     H127617   0.955   5.293   1.002
 5530TP3     H227618   1.096   5.301   0.955
 5531TP3      O27619   1.243   5.247   2.722
 5531TP3     H127620   1.216   5.156   2.751
 5531TP3     H227621   1.332   5.259   2.756
 5532TP3      O27622   1.481   5.335   1.006
 5532TP3     H127623   1.505   5.253   1.054
 5532TP3     H227624   1.556   5.350   0.947
 5533TP3      O27625   0.149   4.914   2.747
 5533TP3     H127626   0.146   4.816   2.757
 5533TP3     H227627   0.056   4.934   2.726
 5534TP3      O27628   0.595   4.930   0.988
 5534TP3     H127629   0.582   4.848   1.037
 5534TP3     H227630   0.656   4.905   0.917
 5535TP3      O27631   0.802   4.898   2.717
 5535TP3     H127632   0.769   4.936   2.633
 5535TP3     H227633   0.800   4.800   2.702
 5536TP3      O27634   1.109   5.046   0.960
 5536TP3     H127635   1.081   5.054   1.053
 5536TP3     H227636   1.091   4.951   0.943
 5537TP3      O27637   1.363   4.881   2.463
 5537TP3     H127638   1.448   4.931   2.458
 5537TP3     H227639   1.300   4.955   2.459
 5538TP3      O27640   0.219   4.616   2.719
 5538TP3     H127641   0.266   4.532   2.709
 5538TP3     H227642   0.177   4.607   2.805
 5539TP3      O27643   0.692   4.731   1.235
 5539TP3     H127644   0.628   4.679   1.285
 5539TP3     H227645   0.720   4.669   1.164
 5540TP3      O27646   0.607   4.513   2.452
 5540TP3     H127647   0.549   4.587   2.477
 5540TP3     H227648   0.654   4.550   2.375
 5541TP3      O27649   0.794   4.556   1.044
 5541TP3     H127650   0.781   4.553   0.947
 5541TP3     H227651   0.892   4.559   1.053
 5542TP3      O27652   1.125   4.775   2.805
 5542TP3     H127653   1.217   4.756   2.780
 5542TP3     H227654   1.098   4.692   2.848
 5543TP3      O27655   1.720   4.785   0.983
 5543TP3     H127656   1.707   4.752   0.892
 5543TP3     H227657   1.730   4.882   0.969
 5544TP3      O27658   0.655   4.254   2.559
 5544TP3     H127659   0.661   4.183   2.492
 5544TP3     H227660   0.645   4.334   2.505
 5545TP3      O27661   0.725   4.089   2.325
 5545TP3     H127662   0.758   4.139   2.246
 5545TP3     H227663   0.629   4.084   2.298
 5546TP3      O27664   0.841   4.640   2.337
 5546TP3     H127665   0.920   4.624   2.285
 5546TP3     H227666   0.806   4.724   2.301
 5547TP3      O27667   1.280   4.410   2.834
 5547TP3     H127668   1.313   4.319   2.830
 5547TP3     H227669   1.366   4.457   2.839
 5548TP3      O27670   1.425   4.693   2.653
 5548TP3     H127671   1.398   4.765   2.592
 5548TP3     H227672   1.522   4.691   2.636
 5549TP3      O27673   0.491   4.378   2.747
 5549TP3     H127674   0.422   4.311   2.734
 5549TP3     H227675   0.559   4.342   2.687
 5550TP3      O27676   0.765   3.828   2.354
 5550TP3     H127677   0.750   3.926   2.344
 5550TP3     H227678   0.692   3.794   2.299
 5551TP3      O27679   0.900   4.264   2.725
 5551TP3     H127680   0.857   4.247   2.811
 5551TP3     H227681   0.825   4.246   2.663
 5552TP3      O27682   1.166   4.176   2.623
 5552TP3     H127683   1.071   4.187   2.641
 5552TP3     H227684   1.196   4.119   2.697
 5553TP3      O27685   1.302   4.045   2.819
 5553TP3     H127686   1.327   3.949   2.812
 5553TP3     H227687   1.319   4.066   2.911
 5554TP3      O27688   0.312   4.171   2.738
 5554TP3     H127689   0.318   4.104   2.667
 5554TP3     H227690   0.289   4.117   2.816
 5555TP3      O27691   0.793   3.775   2.623
 5555TP3     H127692   0.856   3.701   2.623
 5555TP3     H227693   0.777   3.782   2.526
 5556TP3      O27694   0.833   3.936   2.831
 5556TP3     H127695   0.813   3.878   2.754
 5556TP3     H227696   0.769   4.009   2.822
 5557TP3      O27697   0.091   5.089   1.137
 5557TP3     H127698   0.186   5.112   1.142
 5557TP3     H227699   0.105   5.044   1.052
 5558TP3      O27700   0.097   5.427   1.781
 5558TP3     H127701   0.051   5.345   1.807
 5558TP3     H227702   0.113   5.467   1.868
 5559TP3      O27703   1.838  -0.002   2.076
 5559TP3     H127704   1.854  -0.012   2.173
 5559TP3     H227705   1.922   0.037   2.048
 5560TP3      O27706   1.818   5.449   2.339
 5560TP3     H127707   1.764   5.368   2.322
 5560TP3     H227708   1.876   5.409   2.407
 5561TP3      O27709   1.650   5.039   2.850
 5561TP3     H127710   1.558   5.044   2.874
 5561TP3     H227711   1.686   5.128   2.869
 5562TP3      O27712   1.778   4.879   1.377
 5562TP3     H127713   1.864   4.920   1.396
 5562TP3     H227714   1.775   4.811   1.448
 5563TP3      O27715   1.811   4.689   1.569
 5563TP3     H127716   1.735   4.641   1.609
 5563TP3     H227717   1.872   4.699   1.646
 5564TP3      O27718   1.786   4.955   2.059
 5564TP3     H127719   1.870   4.917   2.030
 5564TP3     H227720   1.803   5.051   2.051
 5565TP3      O27721   1.642   5.239   2.303
 5565TP3     H127722   1.573   5.285   2.354
 5565TP3     H227723   1.592   5.209   2.225
 5566TP3      O27724   1.846   4.668   1.208
 5566TP3     H127725   1.786   4.696   1.136
 5566TP3     H227726   1.830   4.740   1.273
 5567TP3      O27727   1.683   4.390   1.055
 5567TP3     H127728   1.690   4.455   0.985
 5567TP3     H227729   1.663   4.307   1.007
 5568TP3      O27730   1.596   4.535   1.631
 5568TP3     H127731   1.581   4.439   1.621
 5568TP3     H227732   1.568   4.550   1.724
 5569TP3      O27733   0.094   4.737   2.039
 5569TP3     H127734   0.107   4.740   1.942
 5569TP3     H227735   0.185   4.721   2.070
 5570TP3      O27736   1.685   4.732   2.598
 5570TP3     H127737   1.745   4.656   2.612
 5570TP3     H227738   1.748   4.808   2.595
 5571TP3      O27739   1.835   4.517   2.636
 5571TP3     H127740   1.745   4.481   2.653
 5571TP3     H227741   1.890   4.439   2.659
 5572TP3      O27742   1.610   4.138   0.970
 5572TP3     H127743   1.665   4.093   1.037
 5572TP3     H227744   1.522   4.101   0.986
 5573TP3      O27745   1.556   4.294   1.465
 5573TP3     H127746   1.587   4.202   1.484
 5573TP3     H227747   1.640   4.334   1.440
 5574TP3      O27748   1.628   4.348   2.020
 5574TP3     H127749   1.724   4.369   2.017
 5574TP3     H227750   1.613   4.361   2.115
 5575TP3      O27751   1.634   4.417   2.288
 5575TP3     H127752   1.547   4.445   2.326
 5575TP3     H227753   1.678   4.504   2.272
 5576TP3      O27754   0.075   4.274   2.649
 5576TP3     H127755   0.165   4.239   2.657
 5576TP3     H227756   0.020   4.197   2.670
 5577TP3      O27757   1.852   3.821   2.822
 5577TP3     H127758   1.903   3.760   2.767
 5577TP3     H227759   1.869   3.908   2.780
 5578TP3      O27760   1.631   4.024   1.477
 5578TP3     H127761   1.657   3.983   1.563
 5578TP3     H227762   1.575   3.955   1.436
 5579TP3      O27763   0.184   4.105   1.887
 5579TP3     H127764   0.210   4.027   1.940
 5579TP3     H227765   0.211   4.165   1.960
 5580TP3      O27766   0.059   4.413   2.062
 5580TP3     H127767   0.103   4.391   1.978
 5580TP3     H227768   0.072   4.509   2.062
 5581TP3      O27769   1.815   4.031   2.659
 5581TP3     H127770   1.724   4.065   2.652
 5581TP3     H227771   1.815   3.974   2.581
 5582TP3      O27772   1.811   4.025   1.136
 5582TP3     H127773   1.849   3.955   1.079
 5582TP3     H227774   1.883   4.089   1.138
 5583TP3      O27775   0.073   4.029   1.429
 5583TP3     H127776  -0.023   4.048   1.429
 5583TP3     H227777   0.107   4.092   1.362
 5584TP3      O27778   0.016   3.854   2.242
 5584TP3     H127779  -0.001   3.889   2.331
 5584TP3     H227780   0.034   3.941   2.202
 5585TP3      O27781   0.257   5.225   2.696
 5585TP3     H127782   0.177   5.218   2.643
 5585TP3     H227783   0.230   5.190   2.781
 5586TP3      O27784   0.547   5.309   2.319
 5586TP3     H127785   0.514   5.398   2.300
 5586TP3     H227786   0.639   5.318   2.287
 5587TP3      O27787   1.016   5.428   2.605
 5587TP3     H127788   1.009   5.417   2.703
 5587TP3     H227789   1.094   5.484   2.601
 5588TP3      O27790   1.717   3.842   2.452
 5588TP3     H127791   1.634   3.874   2.413
 5588TP3     H227792   1.730   3.758   2.403
 5589TP3      O27793   1.236   5.465   2.237
 5589TP3     H127794   1.151   5.506   2.224
 5589TP3     H227795   1.295   5.542   2.229
 5590TP3      O27796   0.225   5.462   2.017
 5590TP3     H127797   0.223   5.436   2.111
 5590TP3     H227798   0.311   5.427   1.986
 5591TP3      O27799   0.435   5.359   1.875
 5591TP3     H127800   0.433   5.264   1.899
 5591TP3     H227801   0.522   5.384   1.915
 5592TP3      O27802   0.684   5.386   1.973
 5592TP3     H127803   0.716   5.298   1.947
 5592TP3     H227804   0.710   5.393   2.066
 5593TP3      O27805   1.054   3.986   1.877
 5593TP3     H127806   0.986   3.924   1.909
 5593TP3     H227807   1.109   3.929   1.822
 5594TP3      O27808   1.570   3.787   1.877
 5594TP3     H127809   1.628   3.850   1.828
 5594TP3     H227810   1.480   3.824   1.860
 5595TP3      O27811   1.733   3.918   1.707
 5595TP3     H127812   1.802   3.858   1.669
 5595TP3     H227813   1.788   3.999   1.722
 5596TP3      O27814   0.302   3.846   1.657
 5596TP3     H127815   0.219   3.832   1.607
 5596TP3     H227816   0.337   3.755   1.653
 5597TP3      O27817   0.185   3.821   1.239
 5597TP3     H127818   0.220   3.888   1.178
 5597TP3     H227819   0.120   3.873   1.289
 5598TP3      O27820   0.733   3.839   1.645
 5598TP3     H127821   0.822   3.874   1.629
 5598TP3     H227822   0.736   3.820   1.738
 5599TP3      O27823   1.314   3.843   1.799
 5599TP3     H127824   1.301   3.857   1.705
 5599TP3     H227825   1.274   3.754   1.814
 5600TP3      O27826   1.435   3.844   1.372
 5600TP3     H127827   1.359   3.902   1.359
 5600TP3     H227828   1.394   3.760   1.402
 5601TP3      O27829   0.172   5.392   1.343
 5601TP3     H127830   0.109   5.397   1.268
 5601TP3     H227831   0.184   5.487   1.356
 5602TP3      O27832   0.352   4.018   1.085
 5602TP3     H127833   0.404   3.955   1.032
 5602TP3     H227834   0.418   4.041   1.152
 5603TP3      O27835   0.851   4.040   1.326
 5603TP3     H127836   0.879   3.985   1.402
 5603TP3     H227837   0.866   4.128   1.366
 5604TP3      O27838   1.718   5.488   1.460
 5604TP3     H127839   1.698   5.410   1.403
 5604TP3     H227840   1.710   5.562   1.398
 5605TP3      O27841   0.274   3.905   2.615
 5605TP3     H127842   0.232   3.822   2.645
 5605TP3     H227843   0.366   3.895   2.648
 5606TP3      O27844   0.478   3.839   2.770
 5606TP3     H127845   0.565   3.803   2.745
 5606TP3     H227846   0.439   3.762   2.816
 5607TP3      O27847   0.328   5.491   1.038
 5607TP3     H127848   0.307   5.527   1.126
 5607TP3     H227849   0.414   5.450   1.050
 5608TP3      O27850   1.327   3.779   2.795
 5608TP3     H127851   1.325   3.709   2.861
 5608TP3     H227852   1.413   3.763   2.751
 5609TP3      O27853   1.608   5.370   2.669
 5609TP3     H127854   1.553   5.373   2.588
 5609TP3     H227855   1.645   5.460   2.663
 5610TP3      O27856   3.089   4.764   1.642
 5610TP3     H127857   3.080   4.862   1.650
 5610TP3     H227858   3.012   4.742   1.588
 5611TP3      O27859   2.973   4.683   1.996
 5611TP3     H127860   2.972   4.624   2.074
 5611TP3     H227861   2.929   4.630   1.927
 5612TP3      O27862   2.203   4.656   2.153
 5612TP3     H127863   2.212   4.585   2.220
 5612TP3     H227864   2.278   4.712   2.177
 5613TP3      O27865   3.330   4.984   1.830
 5613TP3     H127866   3.297   4.910   1.882
 5613TP3     H227867   3.341   5.053   1.898
 5614TP3      O27868   2.299   5.102   1.988
 5614TP3     H127869   2.268   5.011   1.972
 5614TP3     H227870   2.394   5.084   1.998
 5615TP3      O27871   1.960   4.452   1.553
 5615TP3     H127872   1.916   4.538   1.546
 5615TP3     H227873   1.905   4.398   1.495
 5616TP3      O27874   2.036   4.679   1.773
 5616TP3     H127875   2.066   4.595   1.812
 5616TP3     H227876   2.098   4.694   1.701
 5617TP3      O27877   3.021   5.455   1.864
 5617TP3     H127878   3.099   5.404   1.832
 5617TP3     H227879   3.034   5.451   1.960
 5618TP3      O27880   2.808   4.928   2.054
 5618TP3     H127881   2.839   4.869   1.984
 5618TP3     H227882   2.893   4.944   2.099
 5619TP3      O27883   3.667   4.095   2.116
 5619TP3     H127884   3.685   4.152   2.194
 5619TP3     H227885   3.728   4.134   2.052
 5620TP3      O27886   3.125   4.377   2.084
 5620TP3     H127887   3.143   4.281   2.086
 5620TP3     H227888   3.114   4.389   1.988
 5621TP3      O27889   2.432   4.183   1.797
 5621TP3     H127890   2.450   4.264   1.745
 5621TP3     H227891   2.396   4.125   1.726
 5622TP3      O27892   3.206   4.193   1.638
 5622TP3     H127893   3.268   4.156   1.706
 5622TP3     H227894   3.266   4.250   1.589
 5623TP3      O27895   2.095   4.427   1.871
 5623TP3     H127896   2.161   4.375   1.920
 5623TP3     H227897   2.111   4.393   1.781
 5624TP3      O27898   2.610   4.581   1.810
 5624TP3     H127899   2.681   4.523   1.842
 5624TP3     H227900   2.563   4.519   1.751
 5625TP3      O27901   3.708   4.232   2.348
 5625TP3     H127902   3.652   4.312   2.332
 5625TP3     H227903   3.711   4.231   2.444
 5626TP3      O27904   2.331   4.074   2.202
 5626TP3     H127905   2.302   4.132   2.128
 5626TP3     H227906   2.264   4.097   2.271
 5627TP3      O27907   3.055   5.025   1.556
 5627TP3     H127908   3.034   4.999   1.465
 5627TP3     H227909   3.023   5.117   1.563
 5628TP3      O27910   2.578   4.840   2.219
 5628TP3     H127911   2.511   4.905   2.249
 5628TP3     H227912   2.649   4.899   2.191
 5629TP3      O27913   3.395   4.137   1.836
 5629TP3     H127914   3.367   4.055   1.879
 5629TP3     H227915   3.461   4.170   1.899
 5630TP3      O27916   2.290   4.258   2.009
 5630TP3     H127917   2.350   4.329   2.039
 5630TP3     H227918   2.338   4.222   1.930
 5631TP3      O27919   2.432   5.044   2.298
 5631TP3     H127920   2.419   5.139   2.277
 5631TP3     H227921   2.344   5.027   2.340
 5632TP3      O27922   2.032   4.997   1.383
 5632TP3     H127923   2.012   5.045   1.301
 5632TP3     H227924   2.046   5.072   1.445
 5633TP3      O27925   3.391   5.166   2.068
 5633TP3     H127926   3.294   5.178   2.078
 5633TP3     H227927   3.418   5.257   2.047
 5634TP3      O27928   3.422   3.995   2.198
 5634TP3     H127929   3.352   4.061   2.184
 5634TP3     H227930   3.497   4.035   2.150
 5635TP3      O27931   2.713   3.809   1.950
 5635TP3     H127932   2.700   3.713   1.936
 5635TP3     H227933   2.623   3.837   1.980
 5636TP3      O27934   3.217   5.346   1.718
 5636TP3     H127935   3.256   5.266   1.674
 5636TP3     H227936   3.276   5.416   1.686
 5637TP3      O27937   3.344   5.136   1.578
 5637TP3     H127938   3.308   5.072   1.515
 5637TP3     H227939   3.345   5.083   1.660
 5638TP3      O27940   3.498   5.001   2.427
 5638TP3     H127941   3.513   4.932   2.358
 5638TP3     H227942   3.520   5.083   2.377
 5639TP3      O27943   2.948   4.683   1.396
 5639TP3     H127944   2.884   4.747   1.361
 5639TP3     H227945   3.023   4.695   1.335
 5640TP3      O27946   2.961   4.549   1.097
 5640TP3     H127947   3.032   4.554   1.164
 5640TP3     H227948   2.990   4.471   1.049
 5641TP3      O27949   3.690   4.632   2.224
 5641TP3     H127950   3.626   4.707   2.227
 5641TP3     H227951   3.743   4.658   2.147
 5642TP3      O27952   3.301   4.702   1.492
 5642TP3     H127953   3.226   4.730   1.550
 5642TP3     H227954   3.351   4.641   1.550
 5643TP3      O27955   3.290   4.524   2.411
 5643TP3     H127956   3.289   4.607   2.461
 5643TP3     H227957   3.229   4.551   2.339
 5644TP3      O27958   2.458   4.772   1.684
 5644TP3     H127959   2.426   4.736   1.598
 5644TP3     H227960   2.519   4.702   1.717
 5645TP3      O27961   2.590   5.108   1.956
 5645TP3     H127962   2.593   5.067   1.868
 5645TP3     H227963   2.669   5.068   1.998
 5646TP3      O27964   2.487   4.645   2.054
 5646TP3     H127965   2.538   4.653   1.970
 5646TP3     H227966   2.528   4.715   2.109
 5647TP3      O27967   3.130   5.206   2.122
 5647TP3     H127968   3.102   5.278   2.180
 5647TP3     H227969   3.104   5.124   2.170
 5648TP3      O27970   2.581   5.094   2.523
 5648TP3     H127971   2.532   5.163   2.573
 5648TP3     H227972   2.519   5.076   2.448
 5649TP3      O27973   3.186   4.633   1.255
 5649TP3     H127974   3.241   4.648   1.337
 5649TP3     H227975   3.237   4.680   1.184
 5650TP3      O27976   2.281   4.708   2.432
 5650TP3     H127977   2.290   4.775   2.503
 5650TP3     H227978   2.185   4.718   2.416
 5651TP3      O27979   2.957   5.299   1.605
 5651TP3     H127980   2.998   5.332   1.686
 5651TP3     H227981   2.896   5.369   1.579
 5652TP3      O27982   2.403   5.295   2.589
 5652TP3     H127983   2.395   5.284   2.492
 5652TP3     H227984   2.313   5.271   2.621
 5653TP3      O27985   3.561   3.801   1.253
 5653TP3     H127986   3.465   3.808   1.272
 5653TP3     H227987   3.579   3.885   1.207
 5654TP3      O27988   2.351   4.670   1.449
 5654TP3     H127989   2.324   4.749   1.398
 5654TP3     H227990   2.288   4.603   1.419
 5655TP3      O27991   3.669   5.229   1.083
 5655TP3     H127992   3.688   5.322   1.108
 5655TP3     H227993   3.758   5.190   1.095
 5656TP3      O27994   1.962   4.918   2.340
 5656TP3     H127995   1.918   4.909   2.254
 5656TP3     H227996   1.977   4.824   2.361
 5657TP3      O27997   1.941   5.198   2.010
 5657TP3     H127998   2.036   5.183   2.012
 5657TP3     H227999   1.931   5.278   2.063
 5658TP3      O28000   3.762   5.264   2.597
 5658TP3     H128001   3.750   5.169   2.582
 5658TP3     H228002   3.670   5.290   2.622
 5659TP3      O28003   2.849   5.218   2.455
 5659TP3     H128004   2.867   5.290   2.519
 5659TP3     H228005   2.770   5.174   2.492
 5660TP3      O28006   2.282   5.433   1.623
 5660TP3     H128007   2.292   5.411   1.719
 5660TP3     H228008   2.189   5.410   1.610
 5661TP3      O28009   3.201   5.500   1.151
 5661TP3     H128010   3.265   5.434   1.115
 5661TP3     H228011   3.202   5.479   1.246
 5662TP3      O28012   3.149   5.464   1.416
 5662TP3     H128013   3.068   5.502   1.450
 5662TP3     H228014   3.181   5.409   1.489
 5663TP3      O28015   3.482   4.406   2.623
 5663TP3     H128016   3.426   4.451   2.558
 5663TP3     H228017   3.475   4.313   2.597
 5664TP3      O28018   2.207   5.020   2.425
 5664TP3     H128019   2.213   5.015   2.522
 5664TP3     H228020   2.110   5.032   2.410
 5665TP3      O28021   2.462   3.902   2.020
 5665TP3     H128022   2.371   3.885   1.986
 5665TP3     H228023   2.444   3.979   2.076
 5666TP3      O28024   2.929   3.865   2.358
 5666TP3     H128025   2.964   3.820   2.437
 5666TP3     H228026   2.831   3.858   2.371
 5667TP3      O28027   3.250   4.253   2.441
 5667TP3     H128028   3.197   4.228   2.521
 5667TP3     H228029   3.235   4.349   2.430
 5668TP3      O28030   3.331   4.737   1.054
 5668TP3     H128031   3.321   4.719   0.958
 5668TP3     H228032   3.418   4.782   1.051
 5669TP3      O28033   2.887   4.128   1.091
 5669TP3     H128034   2.855   4.118   1.182
 5669TP3     H228035   2.858   4.041   1.058
 5670TP3      O28036   2.470   4.398   2.156
 5670TP3     H128037   2.396   4.401   2.219
 5670TP3     H228038   2.466   4.487   2.114
 5671TP3      O28039   2.466   4.404   1.638
 5671TP3     H128040   2.372   4.382   1.626
 5671TP3     H228041   2.502   4.378   1.550
 5672TP3      O28042   3.021   4.460   1.516
 5672TP3     H128043   2.982   4.541   1.476
 5672TP3     H228044   3.086   4.438   1.447
 5673TP3      O28045   2.929   4.481   2.649
 5673TP3     H128046   2.872   4.408   2.683
 5673TP3     H228047   3.003   4.473   2.711
 5674TP3      O28048   3.124   4.409   1.802
 5674TP3     H128049   3.093   4.465   1.729
 5674TP3     H228050   3.129   4.323   1.755
 5675TP3      O28051   2.231   4.415   2.313
 5675TP3     H128052   2.248   4.460   2.397
 5675TP3     H228053   2.190   4.332   2.343
 5676TP3      O28054   2.564   4.156   1.003
 5676TP3     H128055   2.519   4.117   1.080
 5676TP3     H228056   2.493   4.206   0.960
 5677TP3      O28057   1.900   4.124   1.722
 5677TP3     H128058   1.970   4.122   1.790
 5677TP3     H228059   1.944   4.094   1.641
 5678TP3      O28060   2.022   4.199   1.251
 5678TP3     H128061   2.079   4.255   1.195
 5678TP3     H228062   1.957   4.265   1.280
 5679TP3      O28063   3.039   4.563   2.250
 5679TP3     H128064   3.081   4.493   2.194
 5679TP3     H228065   2.988   4.511   2.315
 5680TP3      O28066   2.726   4.174   1.742
 5680TP3     H128067   2.632   4.160   1.764
 5680TP3     H228068   2.772   4.137   1.818
 5681TP3      O28069   2.202   4.316   1.625
 5681TP3     H128070   2.117   4.335   1.582
 5681TP3     H228071   2.232   4.233   1.582
 5682TP3      O28072   2.563   4.326   1.390
 5682TP3     H128073   2.660   4.331   1.403
 5682TP3     H228074   2.542   4.392   1.323
 5683TP3      O28075   3.164   4.096   2.058
 5683TP3     H128076   3.097   4.091   2.130
 5683TP3     H228077   3.118   4.053   1.983
 5684TP3      O28078   2.440   4.440   1.145
 5684TP3     H128079   2.386   4.402   1.074
 5684TP3     H228080   2.521   4.463   1.097
 5685TP3      O28081   2.250   4.893   2.659
 5685TP3     H128082   2.318   4.930   2.717
 5685TP3     H228083   2.169   4.901   2.714
 5686TP3      O28084   2.849   4.440   1.926
 5686TP3     H128085   2.910   4.388   1.873
 5686TP3     H228086   2.833   4.383   2.003
 5687TP3      O28087   2.349   4.054   1.570
 5687TP3     H128088   2.316   3.963   1.577
 5687TP3     H228089   2.429   4.042   1.517
 5688TP3      O28090   2.713   4.268   2.168
 5688TP3     H128091   2.632   4.324   2.174
 5688TP3     H228092   2.771   4.308   2.236
 5689TP3      O28093   2.772   4.891   1.340
 5689TP3     H128094   2.692   4.846   1.305
 5689TP3     H228095   2.744   4.912   1.432
 5690TP3      O28096   3.499   4.821   2.219
 5690TP3     H128097   3.549   4.871   2.151
 5690TP3     H228098   3.411   4.816   2.176
 5691TP3      O28099   3.154   4.173   1.155
 5691TP3     H128100   3.059   4.190   1.141
 5691TP3     H228101   3.188   4.257   1.193
 5692TP3      O28102   2.918   4.929   2.458
 5692TP3     H128103   2.887   4.879   2.534
 5692TP3     H228104   2.888   5.018   2.477
 5693TP3      O28105   3.226   4.372   1.310
 5693TP3     H128106   3.309   4.357   1.359
 5693TP3     H228107   3.242   4.456   1.263
 5694TP3      O28108   2.284   4.834   1.916
 5694TP3     H128109   2.346   4.823   1.842
 5694TP3     H228110   2.292   4.751   1.966
 5695TP3      O28111   2.977   5.041   1.242
 5695TP3     H128112   2.941   5.125   1.277
 5695TP3     H228113   2.908   4.977   1.268
 5696TP3      O28114   1.985   4.668   2.439
 5696TP3     H128115   1.994   4.625   2.527
 5696TP3     H228116   1.916   4.614   2.399
 5697TP3      O28117   2.683   4.635   2.655
 5697TP3     H128118   2.646   4.588   2.578
 5697TP3     H228119   2.769   4.593   2.663
 5698TP3      O28120   3.153   5.173   2.459
 5698TP3     H128121   3.061   5.183   2.434
 5698TP3     H228122   3.145   5.192   2.555
 5699TP3      O28123   3.718   4.379   1.296
 5699TP3     H128124   3.662   4.354   1.219
 5699TP3     H228125   3.727   4.475   1.277
 5700TP3      O28126   3.720   4.969   2.576
 5700TP3     H128127   3.629   4.989   2.544
 5700TP3     H228128   3.772   4.962   2.493
 5701TP3      O28129   3.529   5.255   1.327
 5701TP3     H128130   3.514   5.170   1.368
 5701TP3     H228131   3.571   5.234   1.242
 5702TP3      O28132   3.271   4.747   2.048
 5702TP3     H128133   3.177   4.729   2.031
 5702TP3     H228134   3.314   4.674   1.999
 5703TP3      O28135   2.520   5.184   1.667
 5703TP3     H128136   2.564   5.265   1.637
 5703TP3     H228137   2.434   5.193   1.624
 5704TP3      O28138   2.101   4.661   1.113
 5704TP3     H128139   2.155   4.727   1.159
 5704TP3     H228140   2.009   4.689   1.135
 5705TP3      O28141   2.657   4.947   1.600
 5705TP3     H128142   2.625   5.038   1.613
 5705TP3     H228143   2.594   4.896   1.654
 5706TP3      O28144   2.705   5.361   2.248
 5706TP3     H128145   2.749   5.445   2.229
 5706TP3     H228146   2.768   5.318   2.310
 5707TP3      O28147   2.538   5.423   1.541
 5707TP3     H128148   2.444   5.430   1.569
 5707TP3     H228149   2.571   5.505   1.585
 5708TP3      O28150   3.050   4.959   2.208
 5708TP3     H128151   3.025   4.946   2.302
 5708TP3     H228152   3.118   4.891   2.193
 5709TP3      O28153   3.300   5.073   1.120
 5709TP3     H128154   3.326   5.022   1.200
 5709TP3     H228155   3.205   5.055   1.122
 5710TP3      O28156   3.340   5.417   2.456
 5710TP3     H128157   3.266   5.368   2.415
 5710TP3     H228158   3.347   5.495   2.398
 5711TP3      O28159   3.755  -0.058   1.163
 5711TP3     H128160   3.812   0.012   1.127
 5711TP3     H228161   3.668  -0.011   1.172
 5712TP3      O28162   2.148   4.146   2.398
 5712TP3     H128163   2.058   4.182   2.399
 5712TP3     H228164   2.138   4.063   2.447
 5713TP3      O28165   3.370   4.931   1.344
 5713TP3     H128166   3.347   4.851   1.396
 5713TP3     H228167   3.466   4.935   1.361
 5714TP3      O28168   2.153   5.330   2.224
 5714TP3     H128169   2.146   5.234   2.233
 5714TP3     H228170   2.130   5.351   2.316
 5715TP3      O28171   2.713   5.178   0.969
 5715TP3     H128172   2.716   5.100   0.910
 5715TP3     H228173   2.659   5.143   1.043
 5716TP3      O28174   2.583   5.135   1.209
 5716TP3     H128175   2.611   5.083   1.286
 5716TP3     H228176   2.593   5.227   1.242
 5717TP3      O28177   2.242   4.853   1.266
 5717TP3     H128178   2.166   4.894   1.312
 5717TP3     H228179   2.287   4.932   1.228
 5718TP3      O28180   3.026   4.123   2.298
 5718TP3     H128181   3.097   4.132   2.362
 5718TP3     H228182   2.985   4.038   2.324
 5719TP3      O28183   3.090   4.081   1.404
 5719TP3     H128184   3.119   4.122   1.321
 5719TP3     H228185   3.149   4.120   1.471
 5720TP3      O28186   2.856   5.290   1.282
 5720TP3     H128187   2.774   5.343   1.289
 5720TP3     H228188   2.911   5.348   1.225
 5721TP3      O28189   2.811   4.266   1.485
 5721TP3     H128190   2.893   4.318   1.494
 5721TP3     H228191   2.791   4.235   1.576
 5722TP3      O28192   2.873   4.358   2.404
 5722TP3     H128193   2.880   4.412   2.485
 5722TP3     H228194   2.940   4.290   2.415
 5723TP3      O28195   2.878   3.980   1.551
 5723TP3     H128196   2.869   4.023   1.636
 5723TP3     H228197   2.969   4.009   1.527
 5724TP3      O28198   2.616   5.404   1.286
 5724TP3     H128199   2.602   5.484   1.233
 5724TP3     H228200   2.572   5.424   1.372
 5725TP3      O28201   2.464   4.076   1.243
 5725TP3     H128202   2.463   4.163   1.287
 5725TP3     H228203   2.554   4.046   1.270
 5726TP3      O28204   3.487   4.144   2.493
 5726TP3     H128205   3.396   4.178   2.477
 5726TP3     H228206   3.521   4.140   2.402
 5727TP3      O28207   3.353   4.524   1.887
 5727TP3     H128208   3.271   4.476   1.864
 5727TP3     H228209   3.405   4.458   1.938
 5728TP3      O28210   2.294   5.099   1.146
 5728TP3     H128211   2.352   5.169   1.179
 5728TP3     H228212   2.350   5.062   1.075
 5729TP3      O28213   2.125   4.385   1.061
 5729TP3     H128214   2.131   4.479   1.088
 5729TP3     H228215   2.035   4.374   1.030
 5730TP3      O28216   3.455   5.439   2.090
 5730TP3     H128217   3.440   5.488   2.006
 5730TP3     H228218   3.552   5.449   2.089
 5731TP3      O28219   2.207   3.863   1.943
 5731TP3     H128220   2.193   3.862   1.846
 5731TP3     H228221   2.168   3.777   1.967
 5732TP3      O28222   2.103   5.231   1.548
 5732TP3     H128223   2.017   5.275   1.546
 5732TP3     H228224   2.148   5.288   1.485
 5733TP3      O28225   2.022   5.493   2.673
 5733TP3     H128226   2.080   5.478   2.750
 5733TP3     H228227   1.991   5.401   2.655
 5734TP3      O28228   2.499   5.395   2.852
 5734TP3     H128229   2.588   5.360   2.865
 5734TP3     H228230   2.480   5.368   2.759
 5735TP3      O28231   2.915   5.358   0.993
 5735TP3     H128232   2.842   5.294   1.001
 5735TP3     H228233   2.983   5.300   0.955
 5736TP3      O28234   3.139   5.244   2.720
 5736TP3     H128235   3.110   5.156   2.754
 5736TP3     H228236   3.223   5.261   2.767
 5737TP3      O28237   3.367   5.335   1.006
 5737TP3     H128238   3.391   5.255   1.055
 5737TP3     H228239   3.442   5.349   0.946
 5738TP3      O28240   2.008   4.893   2.777
 5738TP3     H128241   2.021   4.802   2.744
 5738TP3     H228242   1.937   4.927   2.718
 5739TP3      O28243   2.449   4.931   0.973
 5739TP3     H128244   2.461   4.858   1.037
 5739TP3     H228245   2.530   4.919   0.919
 5740TP3      O28246   2.687   4.897   2.717
 5740TP3     H128247   2.652   4.933   2.634
 5740TP3     H228248   2.683   4.799   2.703
 5741TP3      O28249   2.994   5.045   0.958
 5741TP3     H128250   2.968   5.053   1.052
 5741TP3     H228251   2.976   4.949   0.943
 5742TP3      O28252   3.250   4.884   2.461
 5742TP3     H128253   3.335   4.934   2.459
 5742TP3     H228254   3.188   4.959   2.462
 5743TP3      O28255   2.100   4.618   2.716
 5743TP3     H128256   2.147   4.534   2.709
 5743TP3     H228257   2.084   4.620   2.811
 5744TP3      O28258   2.570   4.734   1.232
 5744TP3     H128259   2.515   4.677   1.287
 5744TP3     H228260   2.603   4.671   1.165
 5745TP3      O28261   2.495   4.509   2.449
 5745TP3     H128262   2.439   4.583   2.478
 5745TP3     H228263   2.537   4.552   2.372
 5746TP3      O28264   2.678   4.560   1.045
 5746TP3     H128265   2.662   4.556   0.950
 5746TP3     H228266   2.776   4.559   1.052
 5747TP3      O28267   3.011   4.778   2.800
 5747TP3     H128268   3.098   4.758   2.760
 5747TP3     H228269   2.979   4.693   2.831
 5748TP3      O28270   3.605   4.785   0.983
 5748TP3     H128271   3.593   4.752   0.892
 5748TP3     H228272   3.616   4.883   0.969
 5749TP3      O28273   2.542   4.253   2.555
 5749TP3     H128274   2.548   4.182   2.488
 5749TP3     H228275   2.532   4.333   2.501
 5750TP3      O28276   2.580   4.087   2.317
 5750TP3     H128277   2.629   4.134   2.246
 5750TP3     H228278   2.488   4.083   2.281
 5751TP3      O28279   2.728   4.643   2.339
 5751TP3     H128280   2.806   4.628   2.285
 5751TP3     H228281   2.690   4.725   2.303
 5752TP3      O28282   3.174   4.414   2.830
 5752TP3     H128283   3.195   4.320   2.820
 5752TP3     H228284   3.261   4.455   2.822
 5753TP3      O28285   3.302   4.695   2.651
 5753TP3     H128286   3.281   4.768   2.589
 5753TP3     H228287   3.399   4.694   2.641
 5754TP3      O28288   2.379   4.381   2.749
 5754TP3     H128289   2.306   4.317   2.742
 5754TP3     H228290   2.445   4.340   2.690
 5755TP3      O28291   2.657   3.832   2.349
 5755TP3     H128292   2.632   3.927   2.341
 5755TP3     H228293   2.585   3.791   2.300
 5756TP3      O28294   2.785   4.262   2.726
 5756TP3     H128295   2.738   4.245   2.810
 5756TP3     H228296   2.713   4.246   2.663
 5757TP3      O28297   3.057   4.179   2.626
 5757TP3     H128298   2.961   4.188   2.639
 5757TP3     H228299   3.081   4.114   2.696
 5758TP3      O28300   3.188   4.036   2.809
 5758TP3     H128301   3.214   3.942   2.817
 5758TP3     H228302   3.197   4.070   2.901
 5759TP3      O28303   2.188   4.169   2.725
 5759TP3     H128304   2.217   4.094   2.671
 5759TP3     H228305   2.179   4.130   2.815
 5760TP3      O28306   2.678   3.770   2.628
 5760TP3     H128307   2.743   3.698   2.625
 5760TP3     H228308   2.667   3.787   2.532
 5761TP3      O28309   2.014   5.074   1.101
 5761TP3     H128310   2.109   5.086   1.117
 5761TP3     H228311   2.016   5.013   1.023
 5762TP3      O28312   1.982   5.421   1.779
 5762TP3     H128313   1.930   5.345   1.806
 5762TP3     H228314   2.001   5.461   1.865
 5763TP3      O28315   3.724  -0.006   2.075
 5763TP3     H128316   3.744  -0.007   2.170
 5763TP3     H228317   3.802   0.040   2.043
 5764TP3      O28318   3.717   5.430   2.349
 5764TP3     H128319   3.649   5.361   2.330
 5764TP3     H228320   3.744   5.409   2.439
 5765TP3      O28321   3.535   5.044   2.840
 5765TP3     H128322   3.445   5.034   2.876
 5765TP3     H228323   3.564   5.124   2.884
 5766TP3      O28324   3.663   4.879   1.377
 5766TP3     H128325   3.749   4.921   1.396
 5766TP3     H228326   3.660   4.811   1.447
 5767TP3      O28327   3.696   4.689   1.570
 5767TP3     H128328   3.620   4.640   1.610
 5767TP3     H228329   3.757   4.699   1.646
 5768TP3      O28330   3.673   4.956   2.066
 5768TP3     H128331   3.753   4.916   2.028
 5768TP3     H228332   3.688   5.051   2.053
 5769TP3      O28333   3.524   5.238   2.307
 5769TP3     H128334   3.454   5.287   2.353
 5769TP3     H228335   3.475   5.211   2.227
 5770TP3      O28336   3.732   4.668   1.209
 5770TP3     H128337   3.672   4.696   1.137
 5770TP3     H228338   3.716   4.740   1.273
 5771TP3      O28339   3.568   4.389   1.056
 5771TP3     H128340   3.576   4.455   0.986
 5771TP3     H228341   3.548   4.307   1.007
 5772TP3      O28342   3.481   4.535   1.631
 5772TP3     H128343   3.467   4.439   1.622
 5772TP3     H228344   3.453   4.551   1.723
 5773TP3      O28345   1.984   4.745   2.035
 5773TP3     H128346   1.997   4.733   1.939
 5773TP3     H228347   2.073   4.722   2.068
 5774TP3      O28348   3.570   4.728   2.602
 5774TP3     H128349   3.632   4.653   2.615
 5774TP3     H228350   3.631   4.805   2.598
 5775TP3      O28351   3.720   4.515   2.662
 5775TP3     H128352   3.630   4.479   2.647
 5775TP3     H228353   3.775   4.435   2.658
 5776TP3      O28354   3.495   4.139   0.970
 5776TP3     H128355   3.550   4.094   1.037
 5776TP3     H228356   3.407   4.101   0.986
 5777TP3      O28357   3.442   4.294   1.465
 5777TP3     H128358   3.474   4.203   1.484
 5777TP3     H228359   3.526   4.335   1.439
 5778TP3      O28360   3.515   4.352   2.022
 5778TP3     H128361   3.612   4.371   2.018
 5778TP3     H228362   3.499   4.362   2.117
 5779TP3      O28363   3.520   4.419   2.300
 5779TP3     H128364   3.429   4.447   2.328
 5779TP3     H228365   3.562   4.504   2.274
 5780TP3      O28366   1.943   4.271   2.653
 5780TP3     H128367   2.036   4.249   2.675
 5780TP3     H228368   1.897   4.188   2.679
 5781TP3      O28369   3.731   3.822   2.807
 5781TP3     H128370   3.790   3.762   2.759
 5781TP3     H228371   3.758   3.909   2.774
 5782TP3      O28372   3.520   4.023   1.475
 5782TP3     H128373   3.541   3.984   1.563
 5782TP3     H228374   3.459   3.956   1.437
 5783TP3      O28375   2.066   4.103   1.938
 5783TP3     H128376   2.110   4.019   1.959
 5783TP3     H228377   2.127   4.170   1.971
 5784TP3      O28378   1.893   4.403   2.039
 5784TP3     H128379   1.949   4.377   1.963
 5784TP3     H228380   1.942   4.482   2.066
 5785TP3      O28381   3.705   4.041   2.652
 5785TP3     H128382   3.612   4.064   2.670
 5785TP3     H228383   3.692   3.979   2.579
 5786TP3      O28384   3.697   4.025   1.136
 5786TP3     H128385   3.736   3.955   1.079
 5786TP3     H228386   3.769   4.090   1.139
 5787TP3      O28387   1.931   4.034   1.448
 5787TP3     H128388   1.836   4.042   1.430
 5787TP3     H228389   1.969   4.080   1.371
 5788TP3      O28390   1.924   3.893   2.275
 5788TP3     H128391   1.857   3.872   2.343
 5788TP3     H228392   1.877   3.958   2.220
 5789TP3      O28393   2.150   5.216   2.711
 5789TP3     H128394   2.078   5.217   2.644
 5789TP3     H228395   2.101   5.203   2.791
 5790TP3      O28396   2.438   5.304   2.322
 5790TP3     H128397   2.393   5.387   2.301
 5790TP3     H228398   2.526   5.320   2.284
 5791TP3      O28399   2.897   5.430   2.609
 5791TP3     H128400   2.894   5.417   2.707
 5791TP3     H228401   2.978   5.483   2.603
 5792TP3      O28402   3.603   3.843   2.453
 5792TP3     H128403   3.521   3.875   2.413
 5792TP3     H228404   3.617   3.759   2.404
 5793TP3      O28405   3.127   5.465   2.237
 5793TP3     H128406   3.040   5.504   2.226
 5793TP3     H228407   3.182   5.545   2.228
 5794TP3      O28408   2.112   5.463   2.013
 5794TP3     H128409   2.113   5.429   2.106
 5794TP3     H228410   2.199   5.429   1.982
 5795TP3      O28411   2.323   5.360   1.875
 5795TP3     H128412   2.320   5.265   1.899
 5795TP3     H228413   2.410   5.385   1.914
 5796TP3      O28414   2.571   5.387   1.972
 5796TP3     H128415   2.601   5.297   1.947
 5796TP3     H228416   2.595   5.393   2.066
 5797TP3      O28417   2.943   3.984   1.878
 5797TP3     H128418   2.871   3.925   1.906
 5797TP3     H228419   2.988   3.927   1.814
 5798TP3      O28420   3.476   3.784   1.881
 5798TP3     H128421   3.525   3.850   1.825
 5798TP3     H228422   3.384   3.818   1.871
 5799TP3      O28423   3.619   3.921   1.706
 5799TP3     H128424   3.687   3.860   1.670
 5799TP3     H228425   3.674   4.001   1.723
 5800TP3      O28426   2.180   3.849   1.664
 5800TP3     H128427   2.099   3.834   1.611
 5800TP3     H228428   2.220   3.759   1.659
 5801TP3      O28429   2.053   3.823   1.230
 5801TP3     H128430   2.105   3.889   1.180
 5801TP3     H228431   2.000   3.880   1.288
 5802TP3      O28432   2.616   3.846   1.645
 5802TP3     H128433   2.709   3.871   1.625
 5802TP3     H228434   2.625   3.817   1.736
 5803TP3      O28435   3.233   3.867   1.836
 5803TP3     H128436   3.201   3.873   1.743
 5803TP3     H228437   3.183   3.785   1.851
 5804TP3      O28438   3.321   3.842   1.372
 5804TP3     H128439   3.244   3.901   1.365
 5804TP3     H228440   3.278   3.759   1.407
 5805TP3      O28441   2.040   5.396   1.353
 5805TP3     H128442   1.972   5.400   1.281
 5805TP3     H228443   2.062   5.491   1.353
 5806TP3      O28444   2.230   4.017   1.090
 5806TP3     H128445   2.284   3.956   1.036
 5806TP3     H228446   2.299   4.050   1.150
 5807TP3      O28447   2.731   4.043   1.327
 5807TP3     H128448   2.766   3.987   1.400
 5807TP3     H228449   2.751   4.129   1.368
 5808TP3      O28450   3.604   5.487   1.460
 5808TP3     H128451   3.583   5.410   1.403
 5808TP3     H228452   3.595   5.562   1.399
 5809TP3      O28453   2.159   3.901   2.612
 5809TP3     H128454   2.120   3.821   2.651
 5809TP3     H228455   2.251   3.896   2.648
 5810TP3      O28456   2.366   3.833   2.766
 5810TP3     H128457   2.457   3.807   2.742
 5810TP3     H228458   2.341   3.755   2.817
 5811TP3      O28459   2.207   5.483   1.042
 5811TP3     H128460   2.190   5.533   1.124
 5811TP3     H228461   2.298   5.451   1.054
 5812TP3      O28462   3.207   3.768   2.785
 5812TP3     H128463   3.216   3.725   2.873
 5812TP3     H228464   3.300   3.764   2.753
 5813TP3      O28465   3.521   5.364   2.661
 5813TP3     H128466   3.450   5.365   2.593
 5813TP3     H228467   3.533   5.460   2.668
 5814TP3      O28468   4.970   4.764   1.645
 5814TP3     H128469   4.967   4.862   1.646
 5814TP3     H228470   4.895   4.742   1.587
 5815TP3      O28471   4.857   4.683   1.997
 5815TP3     H128472   4.861   4.621   2.073
 5815TP3     H228473   4.814   4.630   1.927
 5816TP3      O28474   4.088   4.655   2.152
 5816TP3     H128475   4.099   4.586   2.221
 5816TP3     H228476   4.163   4.712   2.175
 5817TP3      O28477   5.215   4.991   1.826
 5817TP3     H128478   5.189   4.911   1.873
 5817TP3     H228479   5.237   5.050   1.901
 5818TP3      O28480   4.183   5.102   1.994
 5818TP3     H128481   4.154   5.012   1.970
 5818TP3     H228482   4.278   5.086   2.000
 5819TP3      O28483   3.846   4.453   1.552
 5819TP3     H128484   3.801   4.539   1.546
 5819TP3     H228485   3.791   4.398   1.495
 5820TP3      O28486   3.921   4.679   1.774
 5820TP3     H128487   3.952   4.595   1.813
 5820TP3     H228488   3.983   4.693   1.700
 5821TP3      O28489   4.906   5.457   1.863
 5821TP3     H128490   4.981   5.401   1.832
 5821TP3     H228491   4.916   5.452   1.959
 5822TP3      O28492   4.693   4.929   2.052
 5822TP3     H128493   4.724   4.869   1.983
 5822TP3     H228494   4.778   4.945   2.099
 5823TP3      O28495   5.002   4.372   2.083
 5823TP3     H128496   5.032   4.279   2.087
 5823TP3     H228497   5.003   4.385   1.986
 5824TP3      O28498   4.319   4.183   1.797
 5824TP3     H128499   4.335   4.264   1.745
 5824TP3     H228500   4.282   4.124   1.726
 5825TP3      O28501   5.094   4.192   1.641
 5825TP3     H128502   5.161   4.156   1.703
 5825TP3     H228503   5.150   4.252   1.590
 5826TP3      O28504   3.981   4.427   1.871
 5826TP3     H128505   4.047   4.374   1.920
 5826TP3     H228506   3.997   4.393   1.781
 5827TP3      O28507   4.495   4.581   1.810
 5827TP3     H128508   4.567   4.523   1.843
 5827TP3     H228509   4.449   4.518   1.751
 5828TP3      O28510   4.216   4.074   2.202
 5828TP3     H128511   4.187   4.132   2.128
 5828TP3     H228512   4.149   4.097   2.271
 5829TP3      O28513   4.937   5.022   1.557
 5829TP3     H128514   4.918   5.000   1.465
 5829TP3     H228515   4.908   5.115   1.566
 5830TP3      O28516   4.463   4.840   2.220
 5830TP3     H128517   4.395   4.905   2.250
 5830TP3     H228518   4.534   4.900   2.190
 5831TP3      O28519   5.280   4.122   1.827
 5831TP3     H128520   5.250   4.054   1.888
 5831TP3     H228521   5.340   4.172   1.884
 5832TP3      O28522   4.176   4.257   2.009
 5832TP3     H128523   4.236   4.329   2.039
 5832TP3     H228524   4.224   4.221   1.931
 5833TP3      O28525   4.313   5.040   2.308
 5833TP3     H128526   4.306   5.134   2.278
 5833TP3     H228527   4.223   5.030   2.349
 5834TP3      O28528   3.917   4.997   1.383
 5834TP3     H128529   3.897   5.045   1.301
 5834TP3     H228530   3.932   5.072   1.445
 5835TP3      O28531   5.270   5.165   2.073
 5835TP3     H128532   5.173   5.178   2.078
 5835TP3     H228533   5.303   5.255   2.052
 5836TP3      O28534   5.307   3.999   2.195
 5836TP3     H128535   5.230   4.057   2.181
 5836TP3     H228536   5.375   4.043   2.143
 5837TP3      O28537   4.600   3.808   1.946
 5837TP3     H128538   4.583   3.712   1.938
 5837TP3     H228539   4.514   3.840   1.981
 5838TP3      O28540   5.103   5.345   1.718
 5838TP3     H128541   5.142   5.266   1.673
 5838TP3     H228542   5.161   5.416   1.688
 5839TP3      O28543   5.210   5.132   1.569
 5839TP3     H128544   5.189   5.059   1.509
 5839TP3     H228545   5.229   5.086   1.654
 5840TP3      O28546   5.378   4.995   2.435
 5840TP3     H128547   5.404   4.932   2.365
 5840TP3     H228548   5.404   5.080   2.393
 5841TP3      O28549   4.833   4.683   1.397
 5841TP3     H128550   4.768   4.748   1.362
 5841TP3     H228551   4.908   4.695   1.336
 5842TP3      O28552   4.847   4.550   1.098
 5842TP3     H128553   4.918   4.553   1.165
 5842TP3     H228554   4.876   4.472   1.049
 5843TP3      O28555   5.173   4.697   1.488
 5843TP3     H128556   5.106   4.729   1.552
 5843TP3     H228557   5.232   4.644   1.546
 5844TP3      O28558   5.169   4.527   2.410
 5844TP3     H128559   5.166   4.608   2.462
 5844TP3     H228560   5.110   4.553   2.337
 5845TP3      O28561   4.343   4.771   1.684
 5845TP3     H128562   4.312   4.735   1.598
 5845TP3     H228563   4.405   4.702   1.717
 5846TP3      O28564   4.477   5.107   1.956
 5846TP3     H128565   4.479   5.066   1.869
 5846TP3     H228566   4.556   5.067   1.998
 5847TP3      O28567   4.372   4.647   2.054
 5847TP3     H128568   4.423   4.653   1.971
 5847TP3     H228569   4.415   4.715   2.110
 5848TP3      O28570   5.007   5.206   2.121
 5848TP3     H128571   4.987   5.277   2.184
 5848TP3     H228572   4.988   5.122   2.170
 5849TP3      O28573   4.471   5.095   2.531
 5849TP3     H128574   4.418   5.165   2.574
 5849TP3     H228575   4.415   5.073   2.453
 5850TP3      O28576   5.074   4.627   1.253
 5850TP3     H128577   5.122   4.649   1.336
 5850TP3     H228578   5.120   4.679   1.183
 5851TP3      O28579   4.168   4.708   2.427
 5851TP3     H128580   4.177   4.770   2.502
 5851TP3     H228581   4.072   4.711   2.415
 5852TP3      O28582   4.843   5.300   1.604
 5852TP3     H128583   4.882   5.331   1.687
 5852TP3     H228584   4.781   5.369   1.579
 5853TP3      O28585   4.294   5.296   2.593
 5853TP3     H128586   4.287   5.282   2.497
 5853TP3     H228587   4.203   5.271   2.620
 5854TP3      O28588   5.436   3.799   1.254
 5854TP3     H128589   5.340   3.810   1.276
 5854TP3     H228590   5.455   3.878   1.205
 5855TP3      O28591   4.235   4.670   1.451
 5855TP3     H128592   4.209   4.749   1.398
 5855TP3     H228593   4.174   4.603   1.419
 5856TP3      O28594   3.849   4.921   2.340
 5856TP3     H128595   3.804   4.910   2.255
 5856TP3     H228596   3.862   4.825   2.361
 5857TP3      O28597   3.827   5.196   2.011
 5857TP3     H128598   3.924   5.185   2.006
 5857TP3     H228599   3.818   5.278   2.062
 5858TP3      O28600   4.738   5.217   2.456
 5858TP3     H128601   4.751   5.290   2.520
 5858TP3     H228602   4.656   5.173   2.487
 5859TP3      O28603   4.167   5.434   1.623
 5859TP3     H128604   4.178   5.411   1.718
 5859TP3     H228605   4.074   5.410   1.610
 5860TP3      O28606   5.109   5.509   1.151
 5860TP3     H128607   5.156   5.430   1.116
 5860TP3     H228608   5.078   5.480   1.239
 5861TP3      O28609   5.029   5.462   1.414
 5861TP3     H128610   4.951   5.503   1.452
 5861TP3     H228611   5.063   5.409   1.487
 5862TP3      O28612   5.358   4.423   2.617
 5862TP3     H128613   5.299   4.446   2.545
 5862TP3     H228614   5.380   4.329   2.600
 5863TP3      O28615   4.080   5.052   2.435
 5863TP3     H128616   4.097   5.013   2.524
 5863TP3     H228617   3.992   5.016   2.410
 5864TP3      O28618   4.348   3.901   2.021
 5864TP3     H128619   4.257   3.884   1.987
 5864TP3     H228620   4.330   3.979   2.077
 5865TP3      O28621   4.813   3.860   2.355
 5865TP3     H128622   4.852   3.820   2.436
 5865TP3     H228623   4.716   3.855   2.372
 5866TP3      O28624   5.138   4.251   2.436
 5866TP3     H128625   5.092   4.227   2.520
 5866TP3     H228626   5.129   4.348   2.431
 5867TP3      O28627   5.211   4.734   1.054
 5867TP3     H128628   5.207   4.715   0.958
 5867TP3     H228629   5.295   4.780   1.056
 5868TP3      O28630   4.774   4.128   1.091
 5868TP3     H128631   4.740   4.118   1.182
 5868TP3     H228632   4.744   4.041   1.057
 5869TP3      O28633   4.355   4.398   2.156
 5869TP3     H128634   4.281   4.401   2.219
 5869TP3     H228635   4.351   4.487   2.114
 5870TP3      O28636   4.354   4.401   1.637
 5870TP3     H128637   4.258   4.382   1.626
 5870TP3     H228638   4.388   4.377   1.549
 5871TP3      O28639   4.906   4.458   1.515
 5871TP3     H128640   4.868   4.540   1.476
 5871TP3     H228641   4.974   4.436   1.448
 5872TP3      O28642   4.806   4.485   2.658
 5872TP3     H128643   4.757   4.403   2.686
 5872TP3     H228644   4.894   4.470   2.695
 5873TP3      O28645   5.008   4.409   1.803
 5873TP3     H128646   4.978   4.466   1.729
 5873TP3     H228647   5.017   4.324   1.756
 5874TP3      O28648   4.116   4.415   2.314
 5874TP3     H128649   4.135   4.456   2.400
 5874TP3     H228650   4.074   4.331   2.341
 5875TP3      O28651   4.451   4.158   1.002
 5875TP3     H128652   4.403   4.119   1.078
 5875TP3     H228653   4.382   4.207   0.956
 5876TP3      O28654   3.786   4.126   1.722
 5876TP3     H128655   3.856   4.122   1.790
 5876TP3     H228656   3.830   4.094   1.641
 5877TP3      O28657   3.908   4.199   1.251
 5877TP3     H128658   3.964   4.254   1.193
 5877TP3     H228659   3.842   4.266   1.280
 5878TP3      O28660   4.925   4.564   2.249
 5878TP3     H128661   4.967   4.495   2.193
 5878TP3     H228662   4.878   4.510   2.315
 5879TP3      O28663   4.608   4.168   1.739
 5879TP3     H128664   4.514   4.164   1.766
 5879TP3     H228665   4.655   4.140   1.819
 5880TP3      O28666   4.087   4.318   1.626
 5880TP3     H128667   4.002   4.337   1.582
 5880TP3     H228668   4.114   4.234   1.583
 5881TP3      O28669   4.450   4.326   1.388
 5881TP3     H128670   4.546   4.335   1.400
 5881TP3     H228671   4.426   4.393   1.322
 5882TP3      O28672   5.045   4.087   2.061
 5882TP3     H128673   4.977   4.089   2.133
 5882TP3     H228674   4.993   4.057   1.985
 5883TP3      O28675   4.326   4.440   1.145
 5883TP3     H128676   4.272   4.401   1.074
 5883TP3     H228677   4.407   4.463   1.097
 5884TP3      O28678   4.140   4.896   2.651
 5884TP3     H128679   4.206   4.925   2.716
 5884TP3     H228680   4.059   4.895   2.708
 5885TP3      O28681   4.733   4.437   1.924
 5885TP3     H128682   4.802   4.388   1.877
 5885TP3     H228683   4.719   4.383   2.003
 5886TP3      O28684   4.235   4.054   1.570
 5886TP3     H128685   4.201   3.963   1.577
 5886TP3     H228686   4.315   4.042   1.518
 5887TP3      O28687   4.598   4.269   2.169
 5887TP3     H128688   4.518   4.325   2.175
 5887TP3     H228689   4.657   4.308   2.237
 5888TP3      O28690   4.660   4.890   1.341
 5888TP3     H128691   4.579   4.846   1.305
 5888TP3     H228692   4.630   4.912   1.432
 5889TP3      O28693   5.381   4.821   2.219
 5889TP3     H128694   5.432   4.857   2.146
 5889TP3     H228695   5.293   4.810   2.177
 5890TP3      O28696   5.039   4.171   1.156
 5890TP3     H128697   4.943   4.185   1.141
 5890TP3     H228698   5.068   4.258   1.191
 5891TP3      O28699   4.806   4.927   2.458
 5891TP3     H128700   4.772   4.879   2.534
 5891TP3     H228701   4.782   5.019   2.476
 5892TP3      O28702   5.111   4.370   1.309
 5892TP3     H128703   5.193   4.356   1.361
 5892TP3     H228704   5.127   4.456   1.265
 5893TP3      O28705   4.170   4.837   1.918
 5893TP3     H128706   4.232   4.824   1.843
 5893TP3     H228707   4.176   4.753   1.966
 5894TP3      O28708   4.863   5.041   1.242
 5894TP3     H128709   4.827   5.125   1.278
 5894TP3     H228710   4.794   4.977   1.268
 5895TP3      O28711   3.865   4.675   2.444
 5895TP3     H128712   3.880   4.628   2.528
 5895TP3     H228713   3.804   4.616   2.396
 5896TP3      O28714   4.575   4.633   2.661
 5896TP3     H128715   4.536   4.593   2.582
 5896TP3     H228716   4.663   4.590   2.662
 5897TP3      O28717   5.033   5.170   2.457
 5897TP3     H128718   4.940   5.186   2.437
 5897TP3     H228719   5.033   5.194   2.552
 5898TP3      O28720   5.415   5.260   1.322
 5898TP3     H128721   5.394   5.177   1.366
 5898TP3     H228722   5.471   5.232   1.248
 5899TP3      O28723   5.152   4.744   2.052
 5899TP3     H128724   5.059   4.728   2.030
 5899TP3     H228725   5.195   4.674   1.999
 5900TP3      O28726   4.406   5.184   1.668
 5900TP3     H128727   4.450   5.265   1.637
 5900TP3     H228728   4.320   5.193   1.624
 5901TP3      O28729   3.986   4.662   1.112
 5901TP3     H128730   4.040   4.727   1.159
 5901TP3     H228731   3.895   4.689   1.135
 5902TP3      O28732   4.543   4.947   1.600
 5902TP3     H128733   4.511   5.038   1.613
 5902TP3     H228734   4.480   4.895   1.654
 5903TP3      O28735   4.591   5.359   2.244
 5903TP3     H128736   4.632   5.445   2.229
 5903TP3     H228737   4.654   5.317   2.307
 5904TP3      O28738   4.424   5.422   1.544
 5904TP3     H128739   4.329   5.430   1.569
 5904TP3     H228740   4.458   5.505   1.585
 5905TP3      O28741   4.934   4.958   2.208
 5905TP3     H128742   4.910   4.946   2.303
 5905TP3     H228743   4.999   4.888   2.193
 5906TP3      O28744   5.178   5.073   1.127
 5906TP3     H128745   5.203   5.021   1.206
 5906TP3     H228746   5.083   5.055   1.125
 5907TP3      O28747   5.222   5.415   2.455
 5907TP3     H128748   5.154   5.367   2.406
 5907TP3     H228749   5.235   5.493   2.401
 5908TP3      O28750   4.033   4.145   2.398
 5908TP3     H128751   3.943   4.182   2.399
 5908TP3     H228752   4.022   4.062   2.447
 5909TP3      O28753   5.259   4.930   1.348
 5909TP3     H128754   5.230   4.849   1.396
 5909TP3     H228755   5.353   4.933   1.370
 5910TP3      O28756   4.001   5.317   2.246
 5910TP3     H128757   4.036   5.227   2.245
 5910TP3     H228758   4.024   5.350   2.334
 5911TP3      O28759   4.599   5.178   0.969
 5911TP3     H128760   4.602   5.099   0.912
 5911TP3     H228761   4.545   5.144   1.044
 5912TP3      O28762   4.468   5.135   1.209
 5912TP3     H128763   4.497   5.083   1.286
 5912TP3     H228764   4.479   5.227   1.242
 5913TP3      O28765   4.128   4.853   1.266
 5913TP3     H128766   4.052   4.894   1.313
 5913TP3     H228767   4.172   4.932   1.228
 5914TP3      O28768   4.903   4.121   2.302
 5914TP3     H128769   4.978   4.132   2.361
 5914TP3     H228770   4.869   4.033   2.326
 5915TP3      O28771   4.987   4.072   1.405
 5915TP3     H128772   5.003   4.122   1.323
 5915TP3     H228773   5.040   4.122   1.469
 5916TP3      O28774   4.743   5.291   1.283
 5916TP3     H128775   4.660   5.343   1.291
 5916TP3     H228776   4.797   5.349   1.225
 5917TP3      O28777   4.706   4.252   1.488
 5917TP3     H128778   4.779   4.317   1.494
 5917TP3     H228779   4.675   4.241   1.580
 5918TP3      O28780   4.759   4.355   2.406
 5918TP3     H128781   4.762   4.413   2.484
 5918TP3     H228782   4.829   4.289   2.418
 5919TP3      O28783   4.781   3.957   1.567
 5919TP3     H128784   4.750   4.020   1.634
 5919TP3     H228785   4.855   4.010   1.528
 5920TP3      O28786   4.503   5.404   1.286
 5920TP3     H128787   4.489   5.484   1.232
 5920TP3     H228788   4.458   5.424   1.371
 5921TP3      O28789   4.353   4.073   1.244
 5921TP3     H128790   4.348   4.161   1.286
 5921TP3     H228791   4.443   4.046   1.271
 5922TP3      O28792   5.374   4.138   2.491
 5922TP3     H128793   5.284   4.173   2.475
 5922TP3     H228794   5.413   4.153   2.404
 5923TP3      O28795   5.236   4.528   1.888
 5923TP3     H128796   5.155   4.483   1.858
 5923TP3     H228797   5.277   4.457   1.941
 5924TP3      O28798   4.179   5.099   1.146
 5924TP3     H128799   4.238   5.169   1.179
 5924TP3     H228800   4.236   5.062   1.075
 5925TP3      O28801   4.008   4.384   1.064
 5925TP3     H128802   4.016   4.479   1.088
 5925TP3     H228803   3.919   4.375   1.030
 5926TP3      O28804   5.350   5.431   2.092
 5926TP3     H128805   5.328   5.487   2.013
 5926TP3     H228806   5.444   5.449   2.092
 5927TP3      O28807   4.093   3.862   1.944
 5927TP3     H128808   4.079   3.862   1.846
 5927TP3     H228809   4.051   3.775   1.966
 5928TP3      O28810   3.989   5.230   1.547
 5928TP3     H128811   3.903   5.275   1.545
 5928TP3     H228812   4.034   5.288   1.484
 5929TP3      O28813   3.903   5.486   2.670
 5929TP3     H128814   3.964   5.474   2.744
 5929TP3     H228815   3.869   5.396   2.657
 5930TP3      O28816   4.374   5.391   2.851
 5930TP3     H128817   4.465   5.371   2.871
 5930TP3     H228818   4.369   5.369   2.755
 5931TP3      O28819   4.801   5.359   0.993
 5931TP3     H128820   4.727   5.294   1.001
 5931TP3     H228821   4.869   5.301   0.954
 5932TP3      O28822   5.019   5.249   2.720
 5932TP3     H128823   4.992   5.160   2.749
 5932TP3     H228824   5.104   5.262   2.766
 5933TP3      O28825   5.246   5.328   1.002
 5933TP3     H128826   5.281   5.257   1.057
 5933TP3     H228827   5.320   5.352   0.942
 5934TP3      O28828   3.905   4.891   2.770
 5934TP3     H128829   3.903   4.795   2.751
 5934TP3     H228830   3.825   4.922   2.722
 5935TP3      O28831   4.336   4.931   0.974
 5935TP3     H128832   4.347   4.859   1.037
 5935TP3     H228833   4.416   4.918   0.919
 5936TP3      O28834   4.574   4.894   2.720
 5936TP3     H128835   4.541   4.938   2.639
 5936TP3     H228836   4.574   4.798   2.698
 5937TP3      O28837   4.880   5.045   0.960
 5937TP3     H128838   4.854   5.053   1.053
 5937TP3     H228839   4.862   4.950   0.943
 5938TP3      O28840   5.133   4.884   2.455
 5938TP3     H128841   5.218   4.934   2.457
 5938TP3     H228842   5.070   4.959   2.459
 5939TP3      O28843   3.993   4.623   2.722
 5939TP3     H128844   4.031   4.535   2.712
 5939TP3     H228845   3.967   4.624   2.817
 5940TP3      O28846   4.456   4.734   1.232
 5940TP3     H128847   4.400   4.677   1.287
 5940TP3     H228848   4.488   4.671   1.164
 5941TP3      O28849   4.378   4.514   2.453
 5941TP3     H128850   4.320   4.587   2.477
 5941TP3     H228851   4.422   4.550   2.373
 5942TP3      O28852   4.564   4.559   1.044
 5942TP3     H128853   4.549   4.554   0.947
 5942TP3     H228854   4.661   4.558   1.053
 5943TP3      O28855   4.899   4.776   2.810
 5943TP3     H128856   4.980   4.761   2.758
 5943TP3     H228857   4.862   4.689   2.827
 5944TP3      O28858   5.492   4.777   1.002
 5944TP3     H128859   5.465   4.746   0.913
 5944TP3     H228860   5.504   4.873   0.990
 5945TP3      O28861   4.427   4.254   2.554
 5945TP3     H128862   4.435   4.182   2.489
 5945TP3     H228863   4.418   4.333   2.499
 5946TP3      O28864   4.464   4.086   2.316
 5946TP3     H128865   4.513   4.135   2.245
 5946TP3     H228866   4.373   4.083   2.278
 5947TP3      O28867   4.615   4.643   2.340
 5947TP3     H128868   4.693   4.626   2.286
 5947TP3     H228869   4.579   4.725   2.303
 5948TP3      O28870   5.177   4.698   2.650
 5948TP3     H128871   5.167   4.774   2.588
 5948TP3     H228872   5.274   4.686   2.646
 5949TP3      O28873   4.268   4.379   2.749
 5949TP3     H128874   4.192   4.318   2.740
 5949TP3     H228875   4.332   4.340   2.686
 5950TP3      O28876   4.541   3.830   2.352
 5950TP3     H128877   4.520   3.927   2.343
 5950TP3     H228878   4.469   3.792   2.300
 5951TP3      O28879   4.672   4.265   2.719
 5951TP3     H128880   4.639   4.237   2.807
 5951TP3     H228881   4.595   4.245   2.662
 5952TP3      O28882   4.941   4.172   2.627
 5952TP3     H128883   4.845   4.183   2.640
 5952TP3     H228884   4.965   4.115   2.703
 5953TP3      O28885   5.088   4.041   2.831
 5953TP3     H128886   5.090   3.944   2.816
 5953TP3     H228887   5.061   4.052   2.922
 5954TP3      O28888   4.079   4.172   2.729
 5954TP3     H128889   4.096   4.095   2.672
 5954TP3     H228890   4.061   4.131   2.816
 5955TP3      O28891   4.564   3.777   2.625
 5955TP3     H128892   4.632   3.706   2.624
 5955TP3     H228893   4.552   3.787   2.528
 5956TP3      O28894   4.604   3.934   2.847
 5956TP3     H128895   4.589   3.878   2.768
 5956TP3     H228896   4.545   4.010   2.830
 5957TP3      O28897   3.899   5.074   1.101
 5957TP3     H128898   3.995   5.085   1.117
 5957TP3     H228899   3.901   5.013   1.024
 5958TP3      O28900   3.870   5.421   1.780
 5958TP3     H128901   3.815   5.345   1.806
 5958TP3     H228902   3.886   5.461   1.867
 5959TP3      O28903   5.421   5.039   2.847
 5959TP3     H128904   5.330   5.042   2.879
 5959TP3     H228905   5.447   5.130   2.865
 5960TP3      O28906   5.412   5.231   2.307
 5960TP3     H128907   5.349   5.289   2.350
 5960TP3     H228908   5.366   5.206   2.224
 5961TP3      O28909   5.459   4.393   1.057
 5961TP3     H128910   5.454   4.455   0.983
 5961TP3     H228911   5.427   4.310   1.017
 5962TP3      O28912   5.356   4.538   1.629
 5962TP3     H128913   5.355   4.441   1.629
 5962TP3     H228914   5.337   4.558   1.722
 5963TP3      O28915   3.869   4.745   2.036
 5963TP3     H128916   3.883   4.734   1.939
 5963TP3     H228917   3.958   4.722   2.069
 5964TP3      O28918   5.454   4.727   2.619
 5964TP3     H128919   5.508   4.647   2.609
 5964TP3     H228920   5.503   4.797   2.574
 5965TP3      O28921   5.381   4.141   0.962
 5965TP3     H128922   5.429   4.099   1.033
 5965TP3     H228923   5.291   4.109   0.980
 5966TP3      O28924   5.328   4.292   1.464
 5966TP3     H128925   5.354   4.203   1.498
 5966TP3     H228926   5.413   4.329   1.437
 5967TP3      O28927   5.352   4.329   2.024
 5967TP3     H128928   5.448   4.343   2.005
 5967TP3     H228929   5.365   4.353   2.118
 5968TP3      O28930   5.395   4.421   2.287
 5968TP3     H128931   5.314   4.452   2.332
 5968TP3     H228932   5.446   4.502   2.275
 5969TP3      O28933   3.835   4.270   2.650
 5969TP3     H128934   3.927   4.247   2.672
 5969TP3     H228935   3.786   4.188   2.676
 5970TP3      O28936   5.350   4.021   1.495
 5970TP3     H128937   5.405   3.981   1.564
 5970TP3     H228938   5.318   3.941   1.448
 5971TP3      O28939   3.951   4.103   1.938
 5971TP3     H128940   3.995   4.018   1.960
 5971TP3     H228941   4.014   4.169   1.971
 5972TP3      O28942   3.779   4.405   2.039
 5972TP3     H128943   3.834   4.377   1.964
 5972TP3     H228944   3.831   4.484   2.064
 5973TP3      O28945   3.817   4.034   1.448
 5973TP3     H128946   3.722   4.042   1.430
 5973TP3     H228947   3.854   4.080   1.371
 5974TP3      O28948   3.809   3.895   2.274
 5974TP3     H128949   3.743   3.874   2.343
 5974TP3     H228950   3.762   3.960   2.219
 5975TP3      O28951   4.031   5.222   2.697
 5975TP3     H128952   3.949   5.222   2.646
 5975TP3     H228953   4.000   5.193   2.784
 5976TP3      O28954   4.317   5.306   2.318
 5976TP3     H128955   4.285   5.395   2.300
 5976TP3     H228956   4.410   5.316   2.287
 5977TP3      O28957   4.781   5.431   2.613
 5977TP3     H128958   4.788   5.421   2.709
 5977TP3     H228959   4.863   5.479   2.596
 5978TP3      O28960   5.458   3.826   2.481
 5978TP3     H128961   5.388   3.870   2.429
 5978TP3     H228962   5.496   3.765   2.417
 5979TP3      O28963   5.011   5.465   2.239
 5979TP3     H128964   4.923   5.498   2.220
 5979TP3     H228965   5.063   5.545   2.230
 5980TP3      O28966   3.998   5.461   2.022
 5980TP3     H128967   3.995   5.431   2.117
 5980TP3     H228968   4.085   5.427   1.989
 5981TP3      O28969   4.208   5.360   1.876
 5981TP3     H128970   4.205   5.265   1.899
 5981TP3     H228971   4.295   5.385   1.914
 5982TP3      O28972   4.455   5.387   1.974
 5982TP3     H128973   4.487   5.298   1.947
 5982TP3     H228974   4.482   5.393   2.067
 5983TP3      O28975   4.825   3.986   1.877
 5983TP3     H128976   4.758   3.924   1.909
 5983TP3     H228977   4.881   3.930   1.822
 5984TP3      O28978   5.331   3.785   1.896
 5984TP3     H128979   5.392   3.846   1.847
 5984TP3     H228980   5.244   3.821   1.865
 5985TP3      O28981  -0.025   3.920   1.751
 5985TP3     H128982   0.029   3.861   1.695
 5985TP3     H228983   0.021   4.005   1.746
 5986TP3      O28984   4.066   3.848   1.665
 5986TP3     H128985   3.986   3.835   1.612
 5986TP3     H228986   4.106   3.759   1.656
 5987TP3      O28987   3.936   3.823   1.230
 5987TP3     H128988   3.991   3.888   1.183
 5987TP3     H228989   3.885   3.880   1.290
 5988TP3      O28990   4.502   3.839   1.644
 5988TP3     H128991   4.592   3.873   1.628
 5988TP3     H228992   4.505   3.818   1.737
 5989TP3      O28993   5.080   3.842   1.804
 5989TP3     H128994   5.077   3.855   1.708
 5989TP3     H228995   5.041   3.752   1.816
 5990TP3      O28996   5.202   3.839   1.366
 5990TP3     H128997   5.127   3.900   1.359
 5990TP3     H228998   5.161   3.756   1.401
 5991TP3      O28999   3.925   5.396   1.353
 5991TP3     H129000   3.858   5.400   1.281
 5991TP3     H229001   3.947   5.491   1.353
 5992TP3      O29002   4.116   4.017   1.092
 5992TP3     H129003   4.169   3.959   1.035
 5992TP3     H229004   4.185   4.052   1.151
 5993TP3      O29005   4.622   4.040   1.326
 5993TP3     H129006   4.650   3.985   1.402
 5993TP3     H229007   4.637   4.128   1.366
 5994TP3      O29008   5.482   5.499   1.474
 5994TP3     H129009   5.465   5.419   1.420
 5994TP3     H229010   5.485   5.565   1.403
 5995TP3      O29011   4.050   3.906   2.617
 5995TP3     H129012   4.004   3.824   2.646
 5995TP3     H229013   4.140   3.895   2.655
 5996TP3      O29014   4.256   3.839   2.782
 5996TP3     H129015   4.343   3.809   2.748
 5996TP3     H229016   4.218   3.756   2.811
 5997TP3      O29017   4.093   5.482   1.042
 5997TP3     H129018   4.075   5.533   1.124
 5997TP3     H229019   4.183   5.451   1.055
 5998TP3      O29020   5.089   3.770   2.788
 5998TP3     H129021   5.094   3.729   2.877
 5998TP3     H229022   5.183   3.766   2.760
 5999TP3      O29023   5.400   5.370   2.670
 5999TP3     H129024   5.339   5.357   2.595
 5999TP3     H229025   5.415   5.465   2.655
 6000TP3      O29026   1.667   0.030   3.130
 6000TP3     H129027   1.578   0.055   3.158
 6000TP3     H229028   1.690   0.108   3.078
 6001TP3      O29029   1.787   1.469   2.957
 6001TP3     H129030   1.799   1.555   2.996
 6001TP3     H229031   1.875   1.429   2.973
 6002TP3      O29032   1.003   0.348   2.980
 6002TP3     H129033   0.977   0.336   3.072
 6002TP3     H229034   0.967   0.264   2.945
 6003TP3      O29035   1.268   0.409   3.058
 6003TP3     H129036   1.177   0.417   3.022
 6003TP3     H229037   1.299   0.499   3.068
 6004TP3      O29038   0.200   0.906   2.989
 6004TP3     H129039   0.264   0.953   3.042
 6004TP3     H229040   0.113   0.936   3.018
 6005TP3      O29041   1.409   1.280   2.990
 6005TP3     H129042   1.448   1.263   3.077
 6005TP3     H229043   1.315   1.292   3.009
 6006TP3      O29044   0.830   1.400   2.858
 6006TP3     H129045   0.823   1.328   2.793
 6006TP3     H229046   0.772   1.364   2.927
 6007TP3      O29047   1.024   1.596   2.869
 6007TP3     H129048   0.953   1.533   2.896
 6007TP3     H229049   1.094   1.536   2.842
 6008TP3      O29050   0.567   1.156   2.865
 6008TP3     H129051   0.577   1.081   2.925
 6008TP3     H229052   0.644   1.146   2.806
 6009TP3      O29053   0.792   0.763   2.924
 6009TP3     H129054   0.770   0.778   2.830
 6009TP3     H229055   0.882   0.793   2.927
 6010TP3      O29056   1.588   0.383   2.846
 6010TP3     H129057   1.660   0.342   2.899
 6010TP3     H229058   1.514   0.326   2.872
 6011TP3      O29059   1.779   0.271   2.982
 6011TP3     H129060   1.819   0.192   2.937
 6011TP3     H229061   1.853   0.329   3.007
 6012TP3      O29062   0.174   0.087   3.128
 6012TP3     H129063   0.221   0.157   3.079
 6012TP3     H229064   0.112   0.137   3.181
 6013TP3      O29065   0.336   1.740   2.918
 6013TP3     H129066   0.314   1.767   3.008
 6013TP3     H229067   0.420   1.689   2.930
 6014TP3      O29068   2.963   0.773   2.983
 6014TP3     H129069   3.022   0.768   3.061
 6014TP3     H229070   3.004   0.707   2.926
 6015TP3      O29071   3.544   0.016   3.087
 6015TP3     H129072   3.475   0.036   3.152
 6015TP3     H229073   3.580   0.106   3.078
 6016TP3      O29074   3.332   0.973   2.923
 6016TP3     H129075   3.324   0.942   2.830
 6016TP3     H229076   3.428   0.989   2.928
 6017TP3      O29077   2.891   0.370   2.964
 6017TP3     H129078   2.868   0.370   3.058
 6017TP3     H229079   2.857   0.283   2.934
 6018TP3      O29080   2.563   0.375   2.882
 6018TP3     H129081   2.524   0.351   2.967
 6018TP3     H229082   2.501   0.442   2.849
 6019TP3      O29083   3.152   0.405   3.058
 6019TP3     H129084   3.061   0.425   3.030
 6019TP3     H229085   3.189   0.492   3.080
 6020TP3      O29086   2.094   0.889   3.014
 6020TP3     H129087   2.159   0.957   3.037
 6020TP3     H229088   2.013   0.940   3.018
 6021TP3      O29089   2.724   1.391   2.873
 6021TP3     H129090   2.708   1.335   2.795
 6021TP3     H229091   2.649   1.364   2.928
 6022TP3      O29092   2.468   0.306   3.135
 6022TP3     H129093   2.460   0.394   3.174
 6022TP3     H229094   2.559   0.287   3.158
 6023TP3      O29095   2.130   0.614   2.946
 6023TP3     H129096   2.127   0.705   2.982
 6023TP3     H229097   2.037   0.592   2.936
 6024TP3      O29098   2.912   1.592   2.870
 6024TP3     H129099   2.836   1.528   2.882
 6024TP3     H229100   2.977   1.533   2.829
 6025TP3      O29101   2.457   1.166   2.860
 6025TP3     H129102   2.449   1.085   2.909
 6025TP3     H229103   2.530   1.149   2.798
 6026TP3      O29104   3.003   1.268   2.841
 6026TP3     H129105   2.954   1.280   2.922
 6026TP3     H229106   2.978   1.175   2.820
 6027TP3      O29107   3.604   1.014   2.874
 6027TP3     H129108   3.595   0.977   2.784
 6027TP3     H229109   3.622   1.109   2.853
 6028TP3      O29110   2.675   1.846   3.010
 6028TP3     H129111   2.755   1.871   3.059
 6028TP3     H229112   2.648   1.927   2.968
 6029TP3      O29113   2.016   1.304   2.971
 6029TP3     H129114   2.108   1.324   2.996
 6029TP3     H229115   2.023   1.241   2.897
 6030TP3      O29116   3.738   0.904   3.091
 6030TP3     H129117   3.677   0.930   3.019
 6030TP3     H229118   3.715   0.967   3.160
 6031TP3      O29119   3.484   0.372   2.848
 6031TP3     H129120   3.550   0.331   2.909
 6031TP3     H229121   3.404   0.324   2.871
 6032TP3      O29122   3.667   0.276   3.016
 6032TP3     H129123   3.701   0.194   2.972
 6032TP3     H229124   3.754   0.318   3.012
 6033TP3      O29125   2.007   0.026   2.982
 6033TP3     H129126   2.063   0.106   2.977
 6033TP3     H229127   1.998   0.025   3.080
 6034TP3      O29128   2.235   0.246   2.974
 6034TP3     H129129   2.281   0.180   2.918
 6034TP3     H229130   2.305   0.275   3.035
 6035TP3      O29131   2.942   1.780   3.061
 6035TP3     H129132   3.026   1.796   3.019
 6035TP3     H229133   2.902   1.719   2.994
 6036TP3      O29134   4.847   0.781   2.970
 6036TP3     H129135   4.895   0.770   3.054
 6036TP3     H229136   4.877   0.702   2.924
 6037TP3      O29137   5.418   0.038   3.126
 6037TP3     H129138   5.327   0.049   3.154
 6037TP3     H229139   5.445   0.125   3.097
 6038TP3      O29140   5.216   0.961   2.919
 6038TP3     H129141   5.216   0.944   2.823
 6038TP3     H229142   5.307   0.991   2.934
 6039TP3      O29143   4.440   0.362   2.876
 6039TP3     H129144   4.423   0.358   2.971
 6039TP3     H229145   4.386   0.435   2.844
 6040TP3      O29146   3.986   0.888   3.003
 6040TP3     H129147   4.030   0.969   3.032
 6040TP3     H229148   3.891   0.911   3.020
 6041TP3      O29149   4.596   1.407   2.859
 6041TP3     H129150   4.603   1.336   2.793
 6041TP3     H229151   4.541   1.361   2.924
 6042TP3      O29152   4.006   0.614   2.966
 6042TP3     H129153   4.010   0.711   2.966
 6042TP3     H229154   3.924   0.596   2.916
 6043TP3      O29155   4.791   1.591   2.870
 6043TP3     H129156   4.717   1.527   2.881
 6043TP3     H229157   4.855   1.531   2.828
 6044TP3      O29158   4.343   1.159   2.867
 6044TP3     H129159   4.355   1.083   2.926
 6044TP3     H229160   4.418   1.146   2.806
 6045TP3      O29161   4.886   1.272   2.853
 6045TP3     H129162   4.845   1.268   2.939
 6045TP3     H229163   4.869   1.179   2.826
 6046TP3      O29164   4.559   0.775   2.931
 6046TP3     H129165   4.543   0.770   2.835
 6046TP3     H229166   4.654   0.793   2.937
 6047TP3      O29167   5.484   1.008   2.894
 6047TP3     H129168   5.463   0.973   2.804
 6047TP3     H229169   5.506   1.100   2.870
 6048TP3      O29170   4.551   1.868   3.041
 6048TP3     H129171   4.645   1.857   3.031
 6048TP3     H229172   4.530   1.907   2.955
 6049TP3      O29173   3.890   0.178   3.043
 6049TP3     H129174   3.969   0.127   3.024
 6049TP3     H229175   3.862   0.135   3.126
 6050TP3      O29176   4.134   0.258   2.960
 6050TP3     H129177   4.181   0.196   2.899
 6050TP3     H229178   4.200   0.284   3.025
 6051TP3      O29179   4.118   1.761   2.919
 6051TP3     H129180   4.070   1.758   3.002
 6051TP3     H229181   4.180   1.686   2.929
 6052TP3      O29182   1.079   2.664   2.971
 6052TP3     H129183   1.129   2.655   3.053
 6052TP3     H229184   1.109   2.584   2.923
 6053TP3      O29185   0.688   2.275   2.895
 6053TP3     H129186   0.643   2.240   2.973
 6053TP3     H229187   0.619   2.320   2.845
 6054TP3      O29188   0.557   2.536   3.030
 6054TP3     H129189   0.499   2.516   2.956
 6054TP3     H229190   0.633   2.580   2.989
 6055TP3      O29191   1.285   2.298   3.032
 6055TP3     H129192   1.189   2.292   3.036
 6055TP3     H229193   1.309   2.377   3.080
 6056TP3      O29194   1.082   3.164   3.108
 6056TP3     H129195   1.083   3.239   3.170
 6056TP3     H229196   1.033   3.096   3.156
 6057TP3      O29197   0.206   2.783   2.992
 6057TP3     H129198   0.266   2.829   3.052
 6057TP3     H229199   0.115   2.811   3.012
 6058TP3      O29200   1.408   3.175   3.001
 6058TP3     H129201   1.442   3.169   3.092
 6058TP3     H229202   1.313   3.176   3.017
 6059TP3      O29203   0.818   3.293   2.853
 6059TP3     H129204   0.828   3.220   2.788
 6059TP3     H229205   0.785   3.245   2.929
 6060TP3      O29206   0.241   2.490   2.946
 6060TP3     H129207   0.244   2.584   2.968
 6060TP3     H229208   0.149   2.478   2.920
 6061TP3      O29209   1.026   3.480   2.869
 6061TP3     H129210   0.956   3.413   2.885
 6061TP3     H229211   1.095   3.420   2.836
 6062TP3      O29212   1.474   3.445   2.874
 6062TP3     H129213   1.502   3.385   2.945
 6062TP3     H229214   1.558   3.470   2.834
 6063TP3      O29215   1.109   3.162   2.839
 6063TP3     H129216   1.092   3.167   2.936
 6063TP3     H229217   1.099   3.065   2.826
 6064TP3      O29218   0.791   2.663   2.928
 6064TP3     H129219   0.776   2.669   2.832
 6064TP3     H229220   0.886   2.676   2.938
 6065TP3      O29221   0.771   3.744   3.031
 6065TP3     H129222   0.866   3.739   3.048
 6065TP3     H229223   0.764   3.799   2.953
 6066TP3      O29224   0.141   3.207   2.979
 6066TP3     H129225   0.233   3.208   3.004
 6066TP3     H229226   0.139   3.140   2.907
 6067TP3      O29227   1.658   2.514   2.936
 6067TP3     H129228   1.709   2.567   2.873
 6067TP3     H229229   1.662   2.425   2.897
 6068TP3      O29230   1.601   2.251   2.858
 6068TP3     H129231   1.664   2.209   2.920
 6068TP3     H229232   1.518   2.208   2.878
 6069TP3      O29233   1.818   2.130   3.015
 6069TP3     H129234   1.852   2.055   2.962
 6069TP3     H229235   1.883   2.202   3.005
 6070TP3      O29236   0.369   2.144   2.968
 6070TP3     H129237   0.411   2.070   2.921
 6070TP3     H229238   0.427   2.158   3.043
 6071TP3      O29239   0.347   3.629   2.905
 6071TP3     H129240   0.301   3.645   2.989
 6071TP3     H229241   0.424   3.576   2.931
 6072TP3      O29242   3.537   1.904   3.120
 6072TP3     H129243   3.471   1.926   3.185
 6072TP3     H229244   3.581   1.990   3.101
 6073TP3      O29245   3.670   3.356   2.962
 6073TP3     H129246   3.687   3.446   2.987
 6073TP3     H229247   3.756   3.312   2.977
 6074TP3      O29248   3.211   3.630   3.035
 6074TP3     H129249   3.254   3.555   2.990
 6074TP3     H229250   3.215   3.604   3.128
 6075TP3      O29251   2.705   3.294   2.845
 6075TP3     H129252   2.713   3.207   2.804
 6075TP3     H229253   2.673   3.263   2.932
 6076TP3      O29254   2.907   3.475   2.866
 6076TP3     H129255   2.839   3.408   2.889
 6076TP3     H229256   2.985   3.421   2.850
 6077TP3      O29257   3.362   3.451   2.879
 6077TP3     H129258   3.391   3.380   2.937
 6077TP3     H229259   3.442   3.469   2.827
 6078TP3      O29260   3.617   2.902   2.872
 6078TP3     H129261   3.599   2.861   2.785
 6078TP3     H229262   3.622   2.997   2.844
 6079TP3      O29263   2.012   3.194   2.966
 6079TP3     H129264   2.099   3.211   3.003
 6079TP3     H229265   2.025   3.118   2.906
 6080TP3      O29266   3.719   2.781   3.090
 6080TP3     H129267   3.685   2.810   3.001
 6080TP3     H229268   3.741   2.863   3.131
 6081TP3      O29269   3.449   2.179   2.948
 6081TP3     H129270   3.542   2.207   2.948
 6081TP3     H229271   3.425   2.217   2.863
 6082TP3      O29272   2.243   2.126   2.975
 6082TP3     H129273   2.293   2.076   2.908
 6082TP3     H229274   2.313   2.175   3.021
 6083TP3      O29275   4.842   2.649   2.982
 6083TP3     H129276   4.912   2.670   3.046
 6083TP3     H229277   4.884   2.581   2.928
 6084TP3      O29278   5.460   1.822   3.115
 6084TP3     H129279   5.387   1.849   3.171
 6084TP3     H229280   5.508   1.906   3.106
 6085TP3      O29281   5.095   3.628   3.029
 6085TP3     H129282   5.142   3.551   2.991
 6085TP3     H229283   5.103   3.614   3.125
 6086TP3      O29284   5.212   2.835   2.921
 6086TP3     H129285   5.210   2.822   2.825
 6086TP3     H229286   5.289   2.893   2.931
 6087TP3      O29287   4.451   2.261   2.888
 6087TP3     H129288   4.415   2.248   2.978
 6087TP3     H229289   4.390   2.325   2.849
 6088TP3      O29290   4.310   2.532   3.022
 6088TP3     H129291   4.276   2.523   2.932
 6088TP3     H229292   4.395   2.578   3.006
 6089TP3      O29293   3.983   2.796   2.985
 6089TP3     H129294   4.053   2.826   3.046
 6089TP3     H229295   3.896   2.798   3.029
 6090TP3      O29296   4.583   3.297   2.857
 6090TP3     H129297   4.604   3.227   2.792
 6090TP3     H229298   4.561   3.237   2.930
 6091TP3      O29299   5.239   3.433   2.879
 6091TP3     H129300   5.281   3.381   2.948
 6091TP3     H229301   5.316   3.472   2.833
 6092TP3      O29302   4.870   3.155   2.842
 6092TP3     H129303   4.864   3.162   2.938
 6092TP3     H229304   4.862   3.058   2.830
 6093TP3      O29305   4.558   2.638   2.921
 6093TP3     H129306   4.543   2.674   2.833
 6093TP3     H229307   4.645   2.676   2.943
 6094TP3      O29308   5.487   2.890   2.890
 6094TP3     H129309   5.461   2.858   2.801
 6094TP3     H229310   5.495   2.987   2.873
 6095TP3      O29311   3.895   3.193   2.982
 6095TP3     H129312   3.989   3.206   2.991
 6095TP3     H229313   3.897   3.127   2.908
 6096TP3      O29314   5.451   2.514   2.937
 6096TP3     H129315   5.458   2.580   2.868
 6096TP3     H229316   5.425   2.438   2.883
 6097TP3      O29317   5.346   2.305   2.775
 6097TP3     H129318   5.426   2.262   2.809
 6097TP3     H229319   5.275   2.246   2.806
 6098TP3      O29320   4.106   3.620   2.914
 6098TP3     H129321   4.085   3.662   2.997
 6098TP3     H229322   4.191   3.576   2.928
 6099TP3      O29323   1.071   4.539   2.977
 6099TP3     H129324   1.129   4.541   3.053
 6099TP3     H229325   1.115   4.472   2.922
 6100TP3      O29326   1.780   5.234   2.986
 6100TP3     H129327   1.799   5.326   2.973
 6100TP3     H229328   1.870   5.194   2.977
 6101TP3      O29329   1.349   5.519   3.045
 6101TP3     H129330   1.359   5.432   3.007
 6101TP3     H229331   1.298   5.500   3.127
 6102TP3      O29332   1.440   4.752   2.921
 6102TP3     H129333   1.440   4.710   2.833
 6102TP3     H229334   1.536   4.762   2.935
 6103TP3      O29335   0.686   4.155   2.889
 6103TP3     H129336   0.637   4.121   2.966
 6103TP3     H229337   0.620   4.211   2.845
 6104TP3      O29338   0.827   5.173   2.856
 6104TP3     H129339   0.827   5.097   2.795
 6104TP3     H229340   0.772   5.139   2.929
 6105TP3      O29341   0.699   5.130   3.098
 6105TP3     H129342   0.720   5.078   3.176
 6105TP3     H229343   0.713   5.221   3.128
 6106TP3      O29344   0.581   4.074   3.134
 6106TP3     H129345   0.584   4.163   3.172
 6106TP3     H229346   0.670   4.042   3.153
 6107TP3      O29347   1.019   5.362   2.866
 6107TP3     H129348   0.949   5.297   2.889
 6107TP3     H229349   1.092   5.306   2.838
 6108TP3      O29350   0.566   4.928   2.862
 6108TP3     H129351   0.586   4.854   2.919
 6108TP3     H229352   0.645   4.924   2.805
 6109TP3      O29353   1.121   5.041   2.851
 6109TP3     H129354   1.067   5.051   2.930
 6109TP3     H229355   1.095   4.949   2.825
 6110TP3      O29356   0.783   4.561   2.928
 6110TP3     H129357   0.775   4.548   2.832
 6110TP3     H229358   0.880   4.560   2.943
 6111TP3      O29359   1.731   4.790   2.877
 6111TP3     H129360   1.711   4.752   2.790
 6111TP3     H229361   1.735   4.886   2.857
 6112TP3      O29362   0.368   4.032   2.964
 6112TP3     H129363   0.397   3.954   2.913
 6112TP3     H229364   0.438   4.042   3.030
 6113TP3      O29365   3.214   5.504   3.052
 6113TP3     H129366   3.258   5.434   3.001
 6113TP3     H229367   3.218   5.466   3.139
 6114TP3      O29368   2.572   4.142   2.887
 6114TP3     H129369   2.534   4.140   2.976
 6114TP3     H229370   2.514   4.207   2.844
 6115TP3      O29371   3.159   4.175   3.029
 6115TP3     H129372   3.064   4.179   3.040
 6115TP3     H229373   3.186   4.250   3.082
 6116TP3      O29374   2.090   4.660   3.000
 6116TP3     H129375   2.156   4.720   3.036
 6116TP3     H229376   2.006   4.703   3.021
 6117TP3      O29377   3.300   5.061   3.002
 6117TP3     H129378   3.330   5.041   3.091
 6117TP3     H229379   3.204   5.060   3.016
 6118TP3      O29380   2.728   5.171   2.854
 6118TP3     H129381   2.711   5.097   2.793
 6118TP3     H229382   2.668   5.144   2.928
 6119TP3      O29383   2.607   5.132   3.090
 6119TP3     H129384   2.605   5.082   3.172
 6119TP3     H229385   2.570   5.216   3.120
 6120TP3      O29386   2.115   4.381   2.949
 6120TP3     H129387   2.120   4.475   2.977
 6120TP3     H229388   2.022   4.368   2.930
 6121TP3      O29389   2.910   5.363   2.871
 6121TP3     H129390   2.845   5.291   2.887
 6121TP3     H229391   2.985   5.307   2.844
 6122TP3      O29392   3.355   5.327   2.878
 6122TP3     H129393   3.386   5.259   2.940
 6122TP3     H229394   3.439   5.359   2.841
 6123TP3      O29395   2.450   4.939   2.862
 6123TP3     H129396   2.455   4.862   2.920
 6123TP3     H229397   2.529   4.922   2.809
 6124TP3      O29398   3.003   5.043   2.848
 6124TP3     H129399   2.964   5.054   2.936
 6124TP3     H229400   2.979   4.949   2.829
 6125TP3      O29401   3.629   4.789   2.866
 6125TP3     H129402   3.591   4.754   2.783
 6125TP3     H229403   3.617   4.886   2.860
 6126TP3      O29404   2.017   5.084   2.981
 6126TP3     H129405   2.110   5.091   3.007
 6126TP3     H229406   2.018   5.023   2.905
 6127TP3      O29407   3.566   4.390   2.937
 6127TP3     H129408   3.576   4.459   2.872
 6127TP3     H229409   3.547   4.309   2.888
 6128TP3      O29410   3.492   4.129   2.855
 6128TP3     H129411   3.551   4.099   2.927
 6128TP3     H229412   3.408   4.095   2.887
 6129TP3      O29413   2.245   4.025   2.978
 6129TP3     H129414   2.289   3.962   2.917
 6129TP3     H229415   2.316   4.059   3.033
 6130TP3      O29416   2.248   5.502   2.918
 6130TP3     H129417   2.182   5.499   2.988
 6130TP3     H229418   2.311   5.434   2.944
 6131TP3      O29419   5.368   3.877   3.079
 6131TP3     H129420   5.335   3.816   3.148
 6131TP3     H229421   5.461   3.869   3.098
 6132TP3      O29422   5.127   5.513   3.045
 6132TP3     H129423   5.148   5.429   3.001
 6132TP3     H229424   5.085   5.489   3.129
 6133TP3      O29425   4.762   4.124   2.975
 6133TP3     H129426   4.760   4.103   3.069
 6133TP3     H229427   4.748   4.033   2.942
 6134TP3      O29428   4.453   4.163   2.888
 6134TP3     H129429   4.409   4.128   2.968
 6134TP3     H229430   4.382   4.207   2.840
 6135TP3      O29431   3.912   4.205   3.138
 6135TP3     H129432   3.957   4.272   3.084
 6135TP3     H229433   3.841   4.254   3.180
 6136TP3      O29434   3.979   4.671   2.995
 6136TP3     H129435   4.036   4.718   3.057
 6136TP3     H229436   3.890   4.697   3.025
 6137TP3      O29437   5.184   5.069   3.013
 6137TP3     H129438   5.215   5.022   3.091
 6137TP3     H229439   5.088   5.056   3.016
 6138TP3      O29440   4.356   4.074   3.127
 6138TP3     H129441   4.340   4.158   3.172
 6138TP3     H229442   4.443   4.050   3.161
 6139TP3      O29443   4.176   5.119   3.030
 6139TP3     H129444   4.244   5.177   3.064
 6139TP3     H229445   4.227   5.064   2.969
 6140TP3      O29446   4.012   4.386   2.947
 6140TP3     H129447   4.011   4.478   2.980
 6140TP3     H229448   3.920   4.367   2.924
 6141TP3      O29449   5.241   5.322   2.879
 6141TP3     H129450   5.281   5.256   2.936
 6141TP3     H229451   5.317   5.351   2.823
 6142TP3      O29452   4.338   4.943   2.870
 6142TP3     H129453   4.333   4.858   2.914
 6142TP3     H229454   4.411   4.926   2.806
 6143TP3      O29455   4.883   5.046   2.857
 6143TP3     H129456   4.842   5.052   2.942
 6143TP3     H229457   4.865   4.952   2.831
 6144TP3      O29458   5.495   4.778   2.877
 6144TP3     H129459   5.452   4.751   2.794
 6144TP3     H229460   5.497   4.875   2.873
 6145TP3      O29461   3.913   5.090   2.953
 6145TP3     H129462   3.995   5.084   3.005
 6145TP3     H229463   3.908   5.004   2.907
 6146TP3      O29464   5.373   4.137   2.860
 6146TP3     H129465   5.426   4.089   2.924
 6146TP3     H229466   5.287   4.094   2.870
 6147TP3      O29467   4.121   4.019   2.973
 6147TP3     H129468   4.170   3.962   2.911
 6147TP3     H229469   4.189   4.054   3.033
   5.52806   5.52806  10.31600   0.00000   0.00000   0.00000   0.00000   0.00000   0.00000
