;;
;; Generated by CHARMM-GUI FF-Converter
;;
;; Correspondance:
;; jul316@lehigh.edu or wonpil@lehigh.edu
;;
;; The main GROMACS topology file
;;

; Include forcefield parameters
#include "toppar/forcefield.itp"
#include "toppar/PROA.itp"
#include "toppar/POPC.itp"
#include "toppar/Na+.itp"
#include "toppar/Cl-.itp"
#include "toppar/TP3.itp"

[ system ]
; Name
Title

[ molecules ]
; Compound	#mols
PROA  	           1
POPC  	          88
Na+   	          14
Cl-   	          17
TP3   	        5846
